<?xml version="1.0" encoding="ISO-8859-1"?>
<modeling>
 <generator>
  <i name="program" type="string">vasp </i>
  <i name="version" type="string">5.4.4.18Apr17-6-g9f103f2a35  </i>
  <i name="subversion" type="string">(build May 25 2018 14:11:39) complex            parallel </i>
  <i name="platform" type="string">LinuxIFC </i>
  <i name="date" type="string">2018 11 08 </i>
  <i name="time" type="string">15:58:40 </i>
 </generator>
 <incar>
  <i type="string" name="SYSTEM"> InTe wire</i>
  <i type="string" name="PREC">accurate</i>
  <i type="string" name="ALGO"> Fast</i>
  <i type="logical" name="ADDGRID"> T  </i>
  <i type="int" name="ISPIN">     2</i>
  <i type="int" name="ICHARG">     1</i>
  <i type="int" name="NELM">   100</i>
  <i type="int" name="IBRION">     2</i>
  <i name="EDIFF">      0.00010000</i>
  <i type="int" name="NSW">  1000</i>
  <i type="int" name="ISIF">     3</i>
  <i name="ENCUT">    520.00000000</i>
  <i type="logical" name="LREAL"> F  </i>
  <i type="int" name="ISMEAR">     0</i>
  <i name="SIGMA">      0.05000000</i>
  <i type="int" name="NWRITE">     1</i>
  <i type="logical" name="LWAVE"> T  </i>
  <i type="logical" name="LCHARG"> F  </i>
  <i type="int" name="LORBIT">    11</i>
  <v type="int" name="KPOINT_BSE">    -1     0     0     0</v>
  <i type="int" name="NELM">   100</i>
 </incar>
 <structure name="primitive_cell" >
  <crystal>
   <varray name="basis" >
    <v>       8.62743378       0.00000000       0.00000000 </v>
    <v>       0.00000000       8.62743378       0.00000000 </v>
    <v>       0.00000000       0.00000000       7.22671700 </v>
   </varray>
   <i name="volume">    537.90343352 </i>
   <varray name="rec_basis" >
    <v>       0.11590932       0.00000000       0.00000000 </v>
    <v>       0.00000000       0.11590932       0.00000000 </v>
    <v>       0.00000000       0.00000000       0.13837542 </v>
   </varray>
  </crystal>
  <varray name="positions" >
   <v>      -0.50000000      -0.50000000       0.25000000 </v>
   <v>       0.31795801       0.31795801       0.00000000 </v>
   <v>       0.31795801      -0.31795801      -0.50000000 </v>
   <v>      -0.31795800      -0.31795801       0.00000000 </v>
   <v>      -0.31795800       0.31795801      -0.50000000 </v>
   <v>      -0.50000000      -0.50000000      -0.25000000 </v>
  </varray>
 </structure>
 <varray name="primitive_index" >
  <v type="int" >        1 </v>
  <v type="int" >        4 </v>
  <v type="int" >        5 </v>
  <v type="int" >        3 </v>
  <v type="int" >        6 </v>
  <v type="int" >        2 </v>
 </varray>
 <kpoints>
  <generation param="Gamma">
   <v type="int" name="divisions">       1        1       16 </v>
   <v name="usershift">      0.00000000       0.00000000       0.00000000 </v>
   <v name="genvec1">      1.00000000       0.00000000       0.00000000 </v>
   <v name="genvec2">      0.00000000       1.00000000       0.00000000 </v>
   <v name="genvec3">      0.00000000       0.00000000       0.06250000 </v>
   <v name="shift">      0.00000000       0.00000000       0.00000000 </v>
  </generation>
  <varray name="kpointlist" >
   <v>       0.00000000       0.00000000       0.00000000 </v>
   <v>       0.00000000       0.00000000       0.06250000 </v>
   <v>       0.00000000       0.00000000       0.12500000 </v>
   <v>       0.00000000       0.00000000       0.18750000 </v>
   <v>       0.00000000       0.00000000       0.25000000 </v>
   <v>       0.00000000       0.00000000       0.31250000 </v>
   <v>       0.00000000       0.00000000       0.37500000 </v>
   <v>       0.00000000       0.00000000       0.43750000 </v>
   <v>       0.00000000       0.00000000       0.50000000 </v>
  </varray>
  <varray name="weights" >
   <v>       0.06250000 </v>
   <v>       0.12500000 </v>
   <v>       0.12500000 </v>
   <v>       0.12500000 </v>
   <v>       0.12500000 </v>
   <v>       0.12500000 </v>
   <v>       0.12500000 </v>
   <v>       0.12500000 </v>
   <v>       0.06250000 </v>
  </varray>
 </kpoints>
 <parameters>
  <separator name="general" >
   <i type="string" name="SYSTEM">InTe wire</i>
   <i type="logical" name="LCOMPAT"> F  </i>
  </separator>
  <separator name="electronic" >
   <i type="string" name="PREC">accura</i>
   <i name="ENMAX">    520.00000000</i>
   <i name="ENAUG">    449.70400000</i>
   <i name="EDIFF">      0.00010000</i>
   <i type="int" name="IALGO">    68</i>
   <i type="int" name="IWAVPR">    11</i>
   <i type="int" name="NBANDS">    48</i>
   <i name="NELECT">     50.00000000</i>
   <i type="int" name="TURBO">     0</i>
   <i type="int" name="IRESTART">     0</i>
   <i type="int" name="NREBOOT">     0</i>
   <i type="int" name="NMIN">     0</i>
   <i name="EREF">      0.00000000</i>
   <separator name="electronic smearing" >
    <i type="int" name="ISMEAR">     0</i>
    <i name="SIGMA">      0.05000000</i>
    <i name="KSPACING">      0.50000000</i>
    <i type="logical" name="KGAMMA"> T  </i>
   </separator>
   <separator name="electronic projectors" >
    <i type="logical" name="LREAL"> F  </i>
    <v name="ROPT">      0.00000000      0.00000000</v>
    <i type="int" name="LMAXPAW">  -100</i>
    <i type="int" name="LMAXMIX">     2</i>
    <i type="logical" name="NLSPLINE"> F  </i>
   </separator>
   <separator name="electronic startup" >
    <i type="int" name="ISTART">     0</i>
    <i type="int" name="ICHARG">     1</i>
    <i type="int" name="INIWAV">     1</i>
   </separator>
   <separator name="electronic spin" >
    <i type="int" name="ISPIN">     2</i>
    <i type="logical" name="LNONCOLLINEAR"> F  </i>
    <v name="MAGMOM">      1.00000000      1.00000000      1.00000000      1.00000000      1.00000000      1.00000000</v>
    <i name="NUPDOWN">     -1.00000000</i>
    <i type="logical" name="LSORBIT"> F  </i>
    <v name="SAXIS">      0.00000000      0.00000000      1.00000000</v>
    <i type="logical" name="LSPIRAL"> F  </i>
    <v name="QSPIRAL">      0.00000000      0.00000000      0.00000000</v>
    <i type="logical" name="LZEROZ"> F  </i>
   </separator>
   <separator name="electronic exchange-correlation" >
    <i type="logical" name="LASPH"> F  </i>
    <i type="logical" name="LMETAGGA"> F  </i>
   </separator>
   <separator name="electronic convergence" >
    <i type="int" name="NELM">   100</i>
    <i type="int" name="NELMDL">     0</i>
    <i type="int" name="NELMIN">     2</i>
    <i name="ENINI">    520.00000000</i>
    <separator name="electronic convergence detail" >
     <i type="logical" name="LDIAG"> T  </i>
     <i type="logical" name="LSUBROT"> F  </i>
     <i name="WEIMIN">      0.00100000</i>
     <i name="EBREAK">      0.00000052</i>
     <i name="DEPER">      0.30000000</i>
     <i type="int" name="NRMM">     4</i>
     <i name="TIME">      0.40000000</i>
    </separator>
   </separator>
   <separator name="electronic mixer" >
    <i name="AMIX">      0.40000000</i>
    <i name="BMIX">      1.00000000</i>
    <i name="AMIN">      0.10000000</i>
    <i name="AMIX_MAG">      1.60000000</i>
    <i name="BMIX_MAG">      1.00000000</i>
    <separator name="electronic mixer details" >
     <i type="int" name="IMIX">     4</i>
     <i type="logical" name="MIXFIRST"> F  </i>
     <i type="int" name="MAXMIX">   -45</i>
     <i name="WC">    100.00000000</i>
     <i type="int" name="INIMIX">     1</i>
     <i type="int" name="MIXPRE">     1</i>
     <i type="int" name="MREMOVE">     5</i>
    </separator>
   </separator>
   <separator name="electronic dipolcorrection" >
    <i type="logical" name="LDIPOL"> F  </i>
    <i type="logical" name="LMONO"> F  </i>
    <i type="int" name="IDIPOL">     0</i>
    <i name="EPSILON">      1.00000000</i>
    <v name="DIPOL">   -100.00000000   -100.00000000   -100.00000000</v>
    <i name="EFIELD">      0.00000000</i>
   </separator>
  </separator>
  <separator name="grids" >
   <i type="int" name="NGX">    64</i>
   <i type="int" name="NGY">    64</i>
   <i type="int" name="NGZ">    54</i>
   <i type="int" name="NGXF">   128</i>
   <i type="int" name="NGYF">   128</i>
   <i type="int" name="NGZF">   108</i>
   <i type="logical" name="ADDGRID"> T  </i>
  </separator>
  <separator name="ionic" >
   <i type="int" name="NSW">  1000</i>
   <i type="int" name="IBRION">     2</i>
   <i type="int" name="MDALGO">     0</i>
   <i type="int" name="ISIF">     3</i>
   <i name="PSTRESS">      0.00000000</i>
   <i name="EDIFFG">      0.00100000</i>
   <i type="int" name="NFREE">     1</i>
   <i name="POTIM">      0.50000000</i>
   <i name="SMASS">     -3.00000000</i>
   <i name="SCALEE">      1.00000000</i>
  </separator>
  <separator name="ionic md" >
   <i name="TEBEG">      0.00010000</i>
   <i name="TEEND">      0.00010000</i>
   <i type="int" name="NBLOCK">     1</i>
   <i type="int" name="KBLOCK">  1000</i>
   <i type="int" name="NPACO">   256</i>
   <i name="APACO">     16.00000000</i>
  </separator>
  <separator name="symmetry" >
   <i type="int" name="ISYM">     2</i>
   <i name="SYMPREC">      0.00001000</i>
  </separator>
  <separator name="dos" >
   <i type="int" name="LORBIT">    11</i>
   <v name="RWIGS">     -1.00000000     -1.00000000</v>
   <i type="int" name="NEDOS">   301</i>
   <i name="EMIN">     10.00000000</i>
   <i name="EMAX">    -10.00000000</i>
   <i name="EFERMI">      0.00000000</i>
  </separator>
  <separator name="writing" >
   <i type="int" name="NWRITE">     1</i>
   <i type="logical" name="LWAVE"> T  </i>
   <i type="logical" name="LDOWNSAMPLE"> F  </i>
   <i type="logical" name="LCHARG"> F  </i>
   <i type="logical" name="LPARD"> F  </i>
   <i type="logical" name="LVTOT"> F  </i>
   <i type="logical" name="LVHAR"> F  </i>
   <i type="logical" name="LELF"> F  </i>
   <i type="logical" name="LOPTICS"> F  </i>
   <v name="STM">      0.00000000      0.00000000      0.00000000      0.00000000      0.00000000      0.00000000      0.00000000</v>
  </separator>
  <separator name="performance" >
   <i type="int" name="NPAR">    16</i>
   <i type="int" name="NSIM">     4</i>
   <i type="int" name="NBLK">    -1</i>
   <i type="logical" name="LPLANE"> T  </i>
   <i type="logical" name="LSCALAPACK"> T  </i>
   <i type="logical" name="LSCAAWARE"> F  </i>
   <i type="logical" name="LSCALU"> F  </i>
   <i type="logical" name="LASYNC"> F  </i>
   <i type="logical" name="LORBITALREAL"> F  </i>
  </separator>
  <separator name="miscellaneous" >
   <i type="int" name="IDIOT">     3</i>
   <i type="int" name="ISPECIAL">     0</i>
   <i type="logical" name="LMUSIC"> F  </i>
   <v name="POMASS">    114.82000000    127.60000000</v>
   <v name="DARWINR">      0.00000000      0.00000000</v>
   <v name="DARWINV">      1.00000000      1.00000000</v>
   <i type="logical" name="LCORR"> T  </i>
  </separator>
  <i type="logical" name="GGA_COMPAT"> T  </i>
  <i type="logical" name="LBERRY"> F  </i>
  <i type="int" name="ICORELEVEL">     0</i>
  <i type="logical" name="LDAU"> F  </i>
  <i type="int" name="I_CONSTRAINED_M">     0</i>
  <separator name="electronic exchange-correlation" >
   <i type="string" name="GGA">--</i>
   <i type="int" name="VOSKOWN">     0</i>
   <i type="logical" name="LHFCALC"> F  </i>
   <i type="string" name="PRECFOCK"></i>
   <i type="logical" name="LSYMGRAD"> F  </i>
   <i type="logical" name="LHFONE"> F  </i>
   <i type="logical" name="LRHFCALC"> F  </i>
   <i type="logical" name="LTHOMAS"> F  </i>
   <i type="logical" name="LMODELHF"> F  </i>
   <i name="ENCUT4O">     -1.00000000</i>
   <i type="int" name="EXXOEP">     0</i>
   <i type="int" name="FOURORBIT">     0</i>
   <i name="AEXX">      0.00000000</i>
   <i name="HFALPHA">      0.00000000</i>
   <i name="MCALPHA">      0.00000000</i>
   <i name="ALDAX">      1.00000000</i>
   <i name="AGGAX">      1.00000000</i>
   <i name="ALDAC">      1.00000000</i>
   <i name="AGGAC">      1.00000000</i>
   <i type="int" name="NKREDX">     1</i>
   <i type="int" name="NKREDY">     1</i>
   <i type="int" name="NKREDZ">     1</i>
   <i type="logical" name="SHIFTRED"> F  </i>
   <i type="logical" name="ODDONLY"> F  </i>
   <i type="logical" name="EVENONLY"> F  </i>
   <i type="int" name="LMAXFOCK">     0</i>
   <i type="int" name="NMAXFOCKAE">     0</i>
   <i type="logical" name="LFOCKAEDFT"> F  </i>
   <i name="HFSCREEN">      0.00000000</i>
   <i name="HFSCREENC">      0.00000000</i>
   <i type="int" name="NBANDSGWLOW">     0</i>
  </separator>
  <separator name="vdW DFT" >
   <i type="logical" name="LUSE_VDW"> F  </i>
   <i name="Zab_VDW">     -0.84910000</i>
   <i name="PARAM1">      0.12340000</i>
   <i name="PARAM2">      1.00000000</i>
   <i name="PARAM3">      0.00000000</i>
  </separator>
  <separator name="model GW" >
   <i type="int" name="MODEL_GW">     0</i>
   <i name="MODEL_EPS0">     53.79034335</i>
   <i name="MODEL_ALPHA">      1.00000000</i>
  </separator>
  <separator name="linear response parameters" >
   <i type="logical" name="LEPSILON"> F  </i>
   <i type="logical" name="LRPA"> F  </i>
   <i type="logical" name="LNABLA"> F  </i>
   <i type="logical" name="LVEL"> F  </i>
   <i type="int" name="KINTER">     0</i>
   <i name="CSHIFT">      0.10000000</i>
   <i name="OMEGAMAX">     -1.00000000</i>
   <i name="DEG_THRESHOLD">      0.00200000</i>
   <i name="RTIME">     -0.10000000</i>
   <i name="WPLASMAI">      0.00000000</i>
   <v name="DFIELD">      0.00000000      0.00000000      0.00000000</v>
   <v name="WPLASMA">      0.00000000      0.00000000      0.00000000      0.00000000      0.00000000      0.00000000      0.00000000      0.00000000      0.00000000</v>
  </separator>
  <separator name="orbital magnetization" >
   <i type="logical" name="NUCIND"> F  </i>
   <v name="MAGPOS">      0.00000000      0.00000000      0.00000000</v>
   <i type="logical" name="LNICSALL"> T  </i>
   <i type="logical" name="ORBITALMAG"> F  </i>
   <i type="logical" name="LMAGBLOCH"> F  </i>
   <i type="logical" name="LCHIMAG"> F  </i>
   <i type="logical" name="LGAUGE"> T  </i>
   <i type="int" name="MAGATOM">     0</i>
   <v name="MAGDIPOL">      0.00000000      0.00000000      0.00000000</v>
   <v name="AVECCONST">      0.00000000      0.00000000      0.00000000</v>
  </separator>
  <separator name="response functions" >
   <i type="logical" name="LADDER"> F  </i>
   <i type="logical" name="LRPAFORCE"> F  </i>
   <i type="logical" name="LFXC"> F  </i>
   <i type="logical" name="LHARTREE"> T  </i>
   <i type="int" name="IBSE">     0</i>
   <v type="int" name="KPOINT">    -1     0     0     0</v>
   <i type="logical" name="LTCTE"> F  </i>
   <i type="logical" name="LTETE"> F  </i>
   <i type="logical" name="LTRIPLET"> F  </i>
   <i type="logical" name="LFXCEPS"> F  </i>
   <i type="logical" name="LFXHEG"> F  </i>
   <i type="int" name="NATURALO">     2</i>
   <i type="logical" name="L2ORDER"> F  </i>
   <i type="logical" name="LMP2LT"> F  </i>
   <i type="logical" name="LUSEW"> F  </i>
   <i name="ENCUTGW">     -2.00000000</i>
   <i name="ENCUTGWSOFT">     -2.00000000</i>
   <i name="ENCUTLF">     -1.00000000</i>
   <i type="int" name="LMAXMP2">    -1</i>
   <i name="SCISSOR">      0.00000000</i>
   <i type="int" name="NOMEGA">     0</i>
   <i type="int" name="NOMEGAR">     0</i>
   <i type="int" name="NBANDSGW">    -1</i>
   <i type="int" name="NBANDSO">    -1</i>
   <i type="int" name="NBANDSV">    -1</i>
   <i type="int" name="NELM">   100</i>
   <i type="int" name="NELMHF">     1</i>
   <i type="int" name="DIM">     3</i>
   <i type="int" name="ANTIRES">     0</i>
   <i name="OMEGAMAX">    -30.00000000</i>
   <i name="OMEGAMIN">    -30.00000000</i>
   <i name="OMEGATL">   -200.00000000</i>
   <i type="int" name="OMEGAGRID">   140</i>
   <i name="CSHIFT">     -0.10000000</i>
   <i type="logical" name="SELFENERGY"> F  </i>
   <i type="logical" name="LSPECTRAL"> F  </i>
   <i type="logical" name="LSPECTRALGW"> F  </i>
   <i type="logical" name="LSINGLES"> F  </i>
   <i type="logical" name="LFERMIGW"> F  </i>
   <i type="logical" name="ODDONLYGW"> F  </i>
   <i type="logical" name="EVENONLYGW"> F  </i>
   <i type="int" name="NKREDLFX">     1</i>
   <i type="int" name="NKREDLFY">     1</i>
   <i type="int" name="NKREDLFZ">     1</i>
   <i type="int" name="MAXMEM">  2800</i>
   <i type="int" name="TELESCOPE">     0</i>
   <i type="int" name="TAUPAR">     1</i>
   <i type="int" name="OMEGAPAR">    -1</i>
   <i name="LAMBDA">      1.00000000</i>
  </separator>
  <separator name="External order field" >
   <i name="OFIELD_KAPPA">      0.00000000</i>
   <v name="OFIELD_K">      0.00000000      0.00000000      0.00000000</v>
   <i name="OFIELD_Q6_NEAR">      0.00000000</i>
   <i name="OFIELD_Q6_FAR">      0.00000000</i>
   <i name="OFIELD_A">      0.00000000</i>
  </separator>
 </parameters>
 <atominfo>
  <atoms>       6 </atoms>
  <types>       2 </types>
  <array name="atoms" >
   <dimension dim="1">ion</dimension>
   <field type="string">element</field>
   <field type="int">atomtype</field>
   <set>
    <rc><c>In</c><c>   1</c></rc>
    <rc><c>In</c><c>   1</c></rc>
    <rc><c>Te</c><c>   2</c></rc>
    <rc><c>Te</c><c>   2</c></rc>
    <rc><c>Te</c><c>   2</c></rc>
    <rc><c>Te</c><c>   2</c></rc>
   </set>
  </array>
  <array name="atomtypes" >
   <dimension dim="1">type</dimension>
   <field type="int">atomspertype</field>
   <field type="string">element</field>
   <field>mass</field>
   <field>valence</field>
   <field type="string">pseudopotential</field>
   <set>
    <rc><c>   2</c><c>In</c><c>    114.82000000</c><c>     13.00000000</c><c>  PAW_PBE In_d 06Sep2000                </c></rc>
    <rc><c>   4</c><c>Te</c><c>    127.60000000</c><c>      6.00000000</c><c>  PAW_PBE Te 08Apr2002                  </c></rc>
   </set>
  </array>
 </atominfo>
 <structure name="initialpos" >
  <crystal>
   <varray name="basis" >
    <v>       8.62743378       0.00000000       0.00000000 </v>
    <v>       0.00000000       8.62743378       0.00000000 </v>
    <v>       0.00000000       0.00000000       7.22671700 </v>
   </varray>
   <i name="volume">    537.90343352 </i>
   <varray name="rec_basis" >
    <v>       0.11590932       0.00000000       0.00000000 </v>
    <v>       0.00000000       0.11590932       0.00000000 </v>
    <v>       0.00000000       0.00000000       0.13837542 </v>
   </varray>
  </crystal>
  <varray name="positions" >
   <v>       0.50000000       0.50000000       0.25000000 </v>
   <v>       0.50000000       0.50000000       0.75000000 </v>
   <v>       0.68204200       0.68204199       0.00000000 </v>
   <v>       0.31795801       0.31795801       0.00000000 </v>
   <v>       0.31795801       0.68204199       0.50000000 </v>
   <v>       0.68204200       0.31795801       0.50000000 </v>
  </varray>
 </structure>
 <calculation>
  <scstep>
   <time name="dav">    1.09    1.10</time>
   <time name="total">    1.19    1.21</time>
   <energy>
    <i name="alphaZ">     14.73505593 </i>
    <i name="ewald">   -978.66496143 </i>
    <i name="hartreedc">  -2760.24563776 </i>
    <i name="XCdc">    -31.04266560 </i>
    <i name="pawpsdc">   3592.43359978 </i>
    <i name="pawaedc">  -3419.84798471 </i>
    <i name="eentropy">     -0.00157738 </i>
    <i name="bandstr">   -132.86015751 </i>
    <i name="atom">   4046.74041765 </i>
    <i name="e_fr_energy">    331.24608898 </i>
    <i name="e_wo_entrp">    331.24766636 </i>
    <i name="e_0_energy">    331.24687767 </i>
   </energy>
  </scstep>
  <scstep>
   <time name="dav">    1.33    1.34</time>
   <time name="total">    1.34    1.34</time>
   <energy>
    <i name="e_fr_energy">     13.14728432 </i>
    <i name="e_wo_entrp">     13.15387392 </i>
    <i name="e_0_energy">     13.15057912 </i>
   </energy>
  </scstep>
  <scstep>
   <time name="dav">    1.34    1.34</time>
   <time name="total">    1.34    1.34</time>
   <energy>
    <i name="e_fr_energy">    -15.78906319 </i>
    <i name="e_wo_entrp">    -15.77289684 </i>
    <i name="e_0_energy">    -15.78098002 </i>
   </energy>
  </scstep>
  <scstep>
   <time name="dav">    1.19    1.19</time>
   <time name="total">    1.20    1.20</time>
   <energy>
    <i name="e_fr_energy">    -16.79149539 </i>
    <i name="e_wo_entrp">    -16.77682709 </i>
    <i name="e_0_energy">    -16.78416124 </i>
   </energy>
  </scstep>
  <scstep>
   <time name="dav">    1.47    1.47</time>
   <time name="total">    1.60    1.60</time>
   <energy>
    <i name="e_fr_energy">    -16.81021551 </i>
    <i name="e_wo_entrp">    -16.79562823 </i>
    <i name="e_0_energy">    -16.80292187 </i>
   </energy>
  </scstep>
  <scstep>
   <time name="diag">    0.38    0.38</time>
   <time name="diis">    0.36    0.36</time>
   <time name="orth">    0.05    0.05</time>
   <time name="total">    1.01    1.01</time>
   <energy>
    <i name="e_fr_energy">    -16.62846322 </i>
    <i name="e_wo_entrp">    -16.61654272 </i>
    <i name="e_0_energy">    -16.62250297 </i>
   </energy>
  </scstep>
  <scstep>
   <time name="diag">    0.37    0.38</time>
   <time name="diis">    0.28    0.28</time>
   <time name="orth">    0.04    0.04</time>
   <time name="total">    0.92    0.93</time>
   <energy>
    <i name="e_fr_energy">    -16.94840466 </i>
    <i name="e_wo_entrp">    -16.93646317 </i>
    <i name="e_0_energy">    -16.94243392 </i>
   </energy>
  </scstep>
  <scstep>
   <time name="diag">    0.37    0.38</time>
   <time name="diis">    0.28    0.28</time>
   <time name="orth">    0.04    0.04</time>
   <time name="total">    0.92    0.92</time>
   <energy>
    <i name="e_fr_energy">    -17.07483975 </i>
    <i name="e_wo_entrp">    -17.06264740 </i>
    <i name="e_0_energy">    -17.06874358 </i>
   </energy>
  </scstep>
  <scstep>
   <time name="diag">    0.38    0.38</time>
   <time name="diis">    0.31    0.31</time>
   <time name="orth">    0.04    0.04</time>
   <time name="total">    0.96    0.96</time>
   <energy>
    <i name="e_fr_energy">    -17.07890827 </i>
    <i name="e_wo_entrp">    -17.06642187 </i>
    <i name="e_0_energy">    -17.07266507 </i>
   </energy>
  </scstep>
  <scstep>
   <time name="diag">    0.38    0.38</time>
   <time name="diis">    0.30    0.30</time>
   <time name="orth">    0.04    0.04</time>
   <time name="total">    0.94    0.94</time>
   <energy>
    <i name="e_fr_energy">    -17.07939931 </i>
    <i name="e_wo_entrp">    -17.06684932 </i>
    <i name="e_0_energy">    -17.07312432 </i>
   </energy>
  </scstep>
  <scstep>
   <time name="diag">    0.37    0.37</time>
   <time name="diis">    0.31    0.31</time>
   <time name="orth">    0.04    0.04</time>
   <time name="total">    0.95    0.96</time>
   <energy>
    <i name="e_fr_energy">    -17.07994601 </i>
    <i name="e_wo_entrp">    -17.06749435 </i>
    <i name="e_0_energy">    -17.07372018 </i>
   </energy>
  </scstep>
  <scstep>
   <time name="diag">    0.37    0.37</time>
   <time name="diis">    0.26    0.26</time>
   <time name="orth">    0.04    0.04</time>
   <time name="total">    0.78    0.78</time>
   <energy>
    <i name="alphaZ">     14.73505593 </i>
    <i name="ewald">   -978.66496143 </i>
    <i name="hartreedc">  -2762.54162718 </i>
    <i name="XCdc">    -30.73280987 </i>
    <i name="pawpsdc">   5208.80944253 </i>
    <i name="pawaedc">  -5035.62785953 </i>
    <i name="eentropy">     -0.01241420 </i>
    <i name="bandstr">   -479.78516229 </i>
    <i name="atom">   4046.74041765 </i>
    <i name="e_fr_energy">    -17.07991838 </i>
    <i name="e_wo_entrp">    -17.06750418 </i>
    <i name="e_0_energy">    -17.07371128 </i>
   </energy>
  </scstep>
  <structure>
   <crystal>
    <varray name="basis" >
     <v>       8.62743378       0.00000000       0.00000000 </v>
     <v>       0.00000000       8.62743378       0.00000000 </v>
     <v>       0.00000000       0.00000000       7.22671700 </v>
    </varray>
    <i name="volume">    537.90343352 </i>
    <varray name="rec_basis" >
     <v>       0.11590932       0.00000000       0.00000000 </v>
     <v>       0.00000000       0.11590932       0.00000000 </v>
     <v>       0.00000000       0.00000000       0.13837542 </v>
    </varray>
   </crystal>
   <varray name="positions" >
    <v>       0.50000000       0.50000000       0.25000000 </v>
    <v>       0.50000000       0.50000000       0.75000000 </v>
    <v>       0.68204200       0.68204199       0.00000000 </v>
    <v>       0.31795801       0.31795801       0.00000000 </v>
    <v>       0.31795801       0.68204199       0.50000000 </v>
    <v>       0.68204200       0.31795801       0.50000000 </v>
   </varray>
  </structure>
  <varray name="forces" >
   <v>      -0.00000000       0.00000000      -0.00000000 </v>
   <v>      -0.00000000       0.00000000      -0.00000000 </v>
   <v>      -0.21254734      -0.21254734       0.00000000 </v>
   <v>       0.21254734       0.21254734       0.00000000 </v>
   <v>       0.21254734      -0.21254734       0.00000000 </v>
   <v>      -0.21254734       0.21254734       0.00000000 </v>
  </varray>
  <varray name="stress" >
   <v>      -4.31821423      -0.00000000       0.00000000 </v>
   <v>       0.00000000      -4.31821423       0.00000000 </v>
   <v>       0.00000000       0.00000000      -6.42846898 </v>
  </varray>
  <energy>
   <i name="e_fr_energy">    -17.07991838 </i>
   <i name="e_wo_entrp">    -17.07371128 </i>
   <i name="e_0_energy">     -0.01241420 </i>
  </energy>
  <time name="totalsc">   15.31   15.34</time>
 </calculation>
 <calculation>
  <scstep>
   <time name="dav">    1.03    1.03</time>
   <time name="total">    1.26    1.26</time>
   <energy>
    <i name="alphaZ">     15.35107458 </i>
    <i name="ewald">   -970.39843103 </i>
    <i name="hartreedc">  -2820.25729175 </i>
    <i name="XCdc">    -28.91940174 </i>
    <i name="pawpsdc">   5207.08733381 </i>
    <i name="pawaedc">  -5033.88478482 </i>
    <i name="eentropy">     -0.01224265 </i>
    <i name="bandstr">   -433.44952290 </i>
    <i name="atom">   4046.74041765 </i>
    <i name="e_fr_energy">    -17.74284886 </i>
    <i name="e_wo_entrp">    -17.73060620 </i>
    <i name="e_0_energy">    -17.73672753 </i>
   </energy>
  </scstep>
  <scstep>
   <time name="diag">    0.37    0.37</time>
   <time name="diis">    0.32    0.32</time>
   <time name="orth">    0.04    0.04</time>
   <time name="total">    0.96    0.96</time>
   <energy>
    <i name="e_fr_energy">    -17.22758601 </i>
    <i name="e_wo_entrp">    -17.21551831 </i>
    <i name="e_0_energy">    -17.22155216 </i>
   </energy>
  </scstep>
  <scstep>
   <time name="diag">    0.37    0.37</time>
   <time name="diis">    0.31    0.31</time>
   <time name="orth">    0.04    0.04</time>
   <time name="total">    0.97    0.97</time>
   <energy>
    <i name="e_fr_energy">    -17.12096520 </i>
    <i name="e_wo_entrp">    -17.10908770 </i>
    <i name="e_0_energy">    -17.11502645 </i>
   </energy>
  </scstep>
  <scstep>
   <time name="diag">    0.39    0.39</time>
   <time name="diis">    0.33    0.33</time>
   <time name="orth">    0.04    0.04</time>
   <time name="total">    1.00    1.00</time>
   <energy>
    <i name="e_fr_energy">    -17.11480398 </i>
    <i name="e_wo_entrp">    -17.10293643 </i>
    <i name="e_0_energy">    -17.10887021 </i>
   </energy>
  </scstep>
  <scstep>
   <time name="diag">    0.46    0.46</time>
   <time name="diis">    0.36    0.36</time>
   <time name="orth">    0.06    0.06</time>
   <time name="total">    1.11    1.13</time>
   <energy>
    <i name="e_fr_energy">    -17.11427491 </i>
    <i name="e_wo_entrp">    -17.10242390 </i>
    <i name="e_0_energy">    -17.10834941 </i>
   </energy>
  </scstep>
  <scstep>
   <time name="diag">    0.46    0.46</time>
   <time name="diis">    0.27    0.27</time>
   <time name="orth">    0.04    0.04</time>
   <time name="total">    1.00    1.02</time>
   <energy>
    <i name="e_fr_energy">    -17.11368467 </i>
    <i name="e_wo_entrp">    -17.10186242 </i>
    <i name="e_0_energy">    -17.10777355 </i>
   </energy>
  </scstep>
  <scstep>
   <time name="diag">    0.37    0.37</time>
   <time name="diis">    0.27    0.27</time>
   <time name="orth">    0.04    0.04</time>
   <time name="total">    0.92    0.92</time>
   <energy>
    <i name="e_fr_energy">    -17.11294411 </i>
    <i name="e_wo_entrp">    -17.10114546 </i>
    <i name="e_0_energy">    -17.10704479 </i>
   </energy>
  </scstep>
  <scstep>
   <time name="diag">    0.37    0.37</time>
   <time name="diis">    0.26    0.26</time>
   <time name="orth">    0.04    0.04</time>
   <time name="total">    0.77    0.77</time>
   <energy>
    <i name="alphaZ">     15.35107458 </i>
    <i name="ewald">   -970.39843103 </i>
    <i name="hartreedc">  -2777.64083780 </i>
    <i name="XCdc">    -30.28045709 </i>
    <i name="pawpsdc">   5416.99475299 </i>
    <i name="pawaedc">  -5244.68814740 </i>
    <i name="eentropy">     -0.01180426 </i>
    <i name="bandstr">   -473.17958632 </i>
    <i name="atom">   4046.74041765 </i>
    <i name="e_fr_energy">    -17.11301870 </i>
    <i name="e_wo_entrp">    -17.10121443 </i>
    <i name="e_0_energy">    -17.10711657 </i>
   </energy>
  </scstep>
  <structure>
   <crystal>
    <varray name="basis" >
     <v>       8.52686585      -0.00000000       0.00000000 </v>
     <v>       0.00000000       8.52686585       0.00000000 </v>
     <v>       0.00000000       0.00000000       7.10130985 </v>
    </varray>
    <i name="volume">    516.31806870 </i>
    <varray name="rec_basis" >
     <v>       0.11727638       0.00000000       0.00000000 </v>
     <v>       0.00000000       0.11727638       0.00000000 </v>
     <v>       0.00000000       0.00000000       0.14081909 </v>
    </varray>
   </crystal>
   <varray name="positions" >
    <v>       0.50000000       0.50000000       0.25000000 </v>
    <v>       0.50000000       0.50000000       0.75000000 </v>
    <v>       0.68085349       0.68085347       0.00000000 </v>
    <v>       0.31914653       0.31914653       0.00000000 </v>
    <v>       0.31914653       0.68085347       0.50000000 </v>
    <v>       0.68085349       0.31914653       0.50000000 </v>
   </varray>
  </structure>
  <varray name="forces" >
   <v>       0.00000000       0.00000000       0.00000000 </v>
   <v>       0.00000000      -0.00000000      -0.00000000 </v>
   <v>       0.09594968       0.09594968       0.00000000 </v>
   <v>      -0.09594968      -0.09594968      -0.00000000 </v>
   <v>      -0.09594968       0.09594968       0.00000000 </v>
   <v>       0.09594968      -0.09594968      -0.00000000 </v>
  </varray>
  <varray name="stress" >
   <v>       0.98705213      -0.00000000       0.00000000 </v>
   <v>      -0.00000000       0.98705213       0.00000000 </v>
   <v>       0.00000000       0.00000000       1.64171369 </v>
  </varray>
  <energy>
   <i name="e_fr_energy">    -17.11301870 </i>
   <i name="e_wo_entrp">    -17.10711657 </i>
   <i name="e_0_energy">     -0.01180426 </i>
  </energy>
  <time name="totalsc">   10.17   10.22</time>
 </calculation>
 <calculation>
  <scstep>
   <time name="dav">    1.08    1.08</time>
   <time name="total">    1.32    1.33</time>
   <energy>
    <i name="alphaZ">     15.22038120 </i>
    <i name="ewald">   -972.21341394 </i>
    <i name="hartreedc">  -2765.44650887 </i>
    <i name="XCdc">    -30.66502899 </i>
    <i name="pawpsdc">   5441.43721479 </i>
    <i name="pawaedc">  -5269.13478890 </i>
    <i name="eentropy">     -0.01184418 </i>
    <i name="bandstr">   -483.06877437 </i>
    <i name="atom">   4046.74041765 </i>
    <i name="e_fr_energy">    -17.14234560 </i>
    <i name="e_wo_entrp">    -17.13050142 </i>
    <i name="e_0_energy">    -17.13642351 </i>
   </energy>
  </scstep>
  <scstep>
   <time name="diag">    0.37    0.37</time>
   <time name="diis">    0.31    0.31</time>
   <time name="orth">    0.04    0.04</time>
   <time name="total">    0.96    0.96</time>
   <energy>
    <i name="e_fr_energy">    -17.12125617 </i>
    <i name="e_wo_entrp">    -17.10939747 </i>
    <i name="e_0_energy">    -17.11532682 </i>
   </energy>
  </scstep>
  <scstep>
   <time name="diag">    0.37    0.38</time>
   <time name="diis">    0.29    0.29</time>
   <time name="orth">    0.04    0.04</time>
   <time name="total">    0.94    0.94</time>
   <energy>
    <i name="e_fr_energy">    -17.11644705 </i>
    <i name="e_wo_entrp">    -17.10454650 </i>
    <i name="e_0_energy">    -17.11049678 </i>
   </energy>
  </scstep>
  <scstep>
   <time name="diag">    0.37    0.38</time>
   <time name="diis">    0.34    0.34</time>
   <time name="orth">    0.04    0.04</time>
   <time name="total">    0.99    0.99</time>
   <energy>
    <i name="e_fr_energy">    -17.11618690 </i>
    <i name="e_wo_entrp">    -17.10428098 </i>
    <i name="e_0_energy">    -17.11023394 </i>
   </energy>
  </scstep>
  <scstep>
   <time name="diag">    0.37    0.37</time>
   <time name="diis">    0.27    0.27</time>
   <time name="orth">    0.04    0.04</time>
   <time name="total">    0.78    0.79</time>
   <energy>
    <i name="alphaZ">     15.22038120 </i>
    <i name="ewald">   -972.21341394 </i>
    <i name="hartreedc">  -2773.68336816 </i>
    <i name="XCdc">    -30.39487980 </i>
    <i name="pawpsdc">   5371.41979963 </i>
    <i name="pawaedc">  -5198.96029401 </i>
    <i name="eentropy">     -0.01191019 </i>
    <i name="bandstr">   -475.23287003 </i>
    <i name="atom">   4046.74041765 </i>
    <i name="e_fr_energy">    -17.11613766 </i>
    <i name="e_wo_entrp">    -17.10422747 </i>
    <i name="e_0_energy">    -17.11018257 </i>
   </energy>
  </scstep>
  <structure>
   <crystal>
    <varray name="basis" >
     <v>       8.54774287      -0.00000000       0.00000000 </v>
     <v>       0.00000000       8.54774287       0.00000000 </v>
     <v>       0.00000000       0.00000000       7.12734328 </v>
    </varray>
    <i name="volume">    520.75155532 </i>
    <varray name="rec_basis" >
     <v>       0.11698995       0.00000000       0.00000000 </v>
     <v>       0.00000000       0.11698995       0.00000000 </v>
     <v>       0.00000000       0.00000000       0.14030473 </v>
    </varray>
   </crystal>
   <varray name="positions" >
    <v>       0.50000000       0.50000000       0.25000000 </v>
    <v>       0.50000000       0.50000000       0.75000000 </v>
    <v>       0.68110312       0.68110311       0.00000000 </v>
    <v>       0.31889689       0.31889689       0.00000000 </v>
    <v>       0.31889689       0.68110311       0.50000000 </v>
    <v>       0.68110312       0.31889689       0.50000000 </v>
   </varray>
  </structure>
  <varray name="forces" >
   <v>       0.00000000      -0.00000000       0.00000000 </v>
   <v>       0.00000000      -0.00000000      -0.00000000 </v>
   <v>       0.02603166       0.02603166       0.00000000 </v>
   <v>      -0.02603166      -0.02603166      -0.00000000 </v>
   <v>      -0.02603166       0.02603166       0.00000000 </v>
   <v>       0.02603166      -0.02603166      -0.00000000 </v>
  </varray>
  <varray name="stress" >
   <v>       0.15272076       0.00000000       0.00000000 </v>
   <v>       0.00000000       0.15272076       0.00000000 </v>
   <v>       0.00000000       0.00000000       0.04474937 </v>
  </varray>
  <energy>
   <i name="e_fr_energy">    -17.11613766 </i>
   <i name="e_wo_entrp">    -17.11018257 </i>
   <i name="e_0_energy">     -0.01191019 </i>
  </energy>
  <time name="totalsc">    8.22    8.34</time>
  <eigenvalues>
   <array>
    <dimension dim="1">band</dimension>
    <dimension dim="2">kpoint</dimension>
    <dimension dim="3">spin</dimension>
    <field>eigene</field>
    <field>occ</field>
    <set>
     <set comment="spin 1">
      <set comment="kpoint 1">
       <r>  -15.6614    1.0000 </r>
       <r>  -15.6614    1.0000 </r>
       <r>  -15.5982    1.0000 </r>
       <r>  -15.5684    1.0000 </r>
       <r>  -15.5019    1.0000 </r>
       <r>  -15.4906    1.0000 </r>
       <r>  -15.4906    1.0000 </r>
       <r>  -15.4570    1.0000 </r>
       <r>  -15.4442    1.0000 </r>
       <r>  -15.3824    1.0000 </r>
       <r>  -12.2609    1.0000 </r>
       <r>  -11.4770    1.0000 </r>
       <r>  -11.3603    1.0000 </r>
       <r>  -11.3603    1.0000 </r>
       <r>   -6.1572    1.0000 </r>
       <r>   -5.9650    1.0000 </r>
       <r>   -4.1123    1.0000 </r>
       <r>   -3.2344    1.0000 </r>
       <r>   -3.2344    1.0000 </r>
       <r>   -3.0201    1.0000 </r>
       <r>   -3.0201    1.0000 </r>
       <r>   -2.6356    1.0000 </r>
       <r>   -2.1587    1.0000 </r>
       <r>   -2.1031    1.0000 </r>
       <r>   -2.1031    1.0000 </r>
       <r>   -2.0171    1.0000 </r>
       <r>    0.5241    0.0000 </r>
       <r>    0.9342    0.0000 </r>
       <r>    2.2982    0.0000 </r>
       <r>    2.2982    0.0000 </r>
       <r>    2.8946    0.0000 </r>
       <r>    3.2174    0.0000 </r>
       <r>    3.7964    0.0000 </r>
       <r>    3.7964    0.0000 </r>
       <r>    4.3162    0.0000 </r>
       <r>    4.4200    0.0000 </r>
       <r>    4.4646    0.0000 </r>
       <r>    4.4806    0.0000 </r>
       <r>    4.7632    0.0000 </r>
       <r>    5.8024    0.0000 </r>
       <r>    5.8024    0.0000 </r>
       <r>    5.8572    0.0000 </r>
       <r>    6.4047    0.0000 </r>
       <r>    6.4047    0.0000 </r>
       <r>    6.4073    0.0000 </r>
       <r>    6.9659    0.0000 </r>
       <r>    6.9659    0.0000 </r>
       <r>    7.1001    0.0000 </r>
      </set>
      <set comment="kpoint 2">
       <r>  -15.6605    1.0000 </r>
       <r>  -15.6605    1.0000 </r>
       <r>  -15.5963    1.0000 </r>
       <r>  -15.5679    1.0000 </r>
       <r>  -15.5024    1.0000 </r>
       <r>  -15.4916    1.0000 </r>
       <r>  -15.4916    1.0000 </r>
       <r>  -15.4569    1.0000 </r>
       <r>  -15.4443    1.0000 </r>
       <r>  -15.3844    1.0000 </r>
       <r>  -12.2546    1.0000 </r>
       <r>  -11.4862    1.0000 </r>
       <r>  -11.3600    1.0000 </r>
       <r>  -11.3600    1.0000 </r>
       <r>   -6.1556    1.0000 </r>
       <r>   -5.9668    1.0000 </r>
       <r>   -4.0909    1.0000 </r>
       <r>   -3.2874    1.0000 </r>
       <r>   -3.2874    1.0000 </r>
       <r>   -2.9666    1.0000 </r>
       <r>   -2.9666    1.0000 </r>
       <r>   -2.6305    1.0000 </r>
       <r>   -2.1770    1.0000 </r>
       <r>   -2.0998    1.0000 </r>
       <r>   -2.0998    1.0000 </r>
       <r>   -2.0242    1.0000 </r>
       <r>    0.5238    0.0000 </r>
       <r>    0.9478    0.0000 </r>
       <r>    2.3116    0.0000 </r>
       <r>    2.3116    0.0000 </r>
       <r>    2.8957    0.0000 </r>
       <r>    3.1808    0.0000 </r>
       <r>    3.7859    0.0000 </r>
       <r>    3.7859    0.0000 </r>
       <r>    4.2089    0.0000 </r>
       <r>    4.3315    0.0000 </r>
       <r>    4.4819    0.0000 </r>
       <r>    4.7071    0.0000 </r>
       <r>    4.7691    0.0000 </r>
       <r>    5.7658    0.0000 </r>
       <r>    5.7658    0.0000 </r>
       <r>    5.7976    0.0000 </r>
       <r>    6.4045    0.0000 </r>
       <r>    6.4045    0.0000 </r>
       <r>    6.4333    0.0000 </r>
       <r>    6.8037    0.0000 </r>
       <r>    6.8037    0.0000 </r>
       <r>    7.0544    0.0000 </r>
      </set>
      <set comment="kpoint 3">
       <r>  -15.6577    1.0000 </r>
       <r>  -15.6577    1.0000 </r>
       <r>  -15.5906    1.0000 </r>
       <r>  -15.5663    1.0000 </r>
       <r>  -15.5039    1.0000 </r>
       <r>  -15.4948    1.0000 </r>
       <r>  -15.4948    1.0000 </r>
       <r>  -15.4565    1.0000 </r>
       <r>  -15.4447    1.0000 </r>
       <r>  -15.3902    1.0000 </r>
       <r>  -12.2358    1.0000 </r>
       <r>  -11.5131    1.0000 </r>
       <r>  -11.3589    1.0000 </r>
       <r>  -11.3589    1.0000 </r>
       <r>   -6.1508    1.0000 </r>
       <r>   -5.9722    1.0000 </r>
       <r>   -4.0279    1.0000 </r>
       <r>   -3.3832    1.0000 </r>
       <r>   -3.3832    1.0000 </r>
       <r>   -2.8696    1.0000 </r>
       <r>   -2.8696    1.0000 </r>
       <r>   -2.6155    1.0000 </r>
       <r>   -2.2307    1.0000 </r>
       <r>   -2.0899    1.0000 </r>
       <r>   -2.0899    1.0000 </r>
       <r>   -2.0451    1.0000 </r>
       <r>    0.5242    0.0000 </r>
       <r>    0.9841    0.0000 </r>
       <r>    2.3517    0.0000 </r>
       <r>    2.3517    0.0000 </r>
       <r>    2.8971    0.0000 </r>
       <r>    3.0670    0.0000 </r>
       <r>    3.7564    0.0000 </r>
       <r>    3.7564    0.0000 </r>
       <r>    4.0400    0.0000 </r>
       <r>    4.3762    0.0000 </r>
       <r>    4.5306    0.0000 </r>
       <r>    4.7863    0.0000 </r>
       <r>    4.9304    0.0000 </r>
       <r>    5.6435    0.0000 </r>
       <r>    5.6435    0.0000 </r>
       <r>    5.6557    0.0000 </r>
       <r>    6.3968    0.0000 </r>
       <r>    6.3968    0.0000 </r>
       <r>    6.5107    0.0000 </r>
       <r>    6.6162    0.0000 </r>
       <r>    6.6162    0.0000 </r>
       <r>    6.9494    0.0000 </r>
      </set>
      <set comment="kpoint 4">
       <r>  -15.6533    1.0000 </r>
       <r>  -15.6533    1.0000 </r>
       <r>  -15.5815    1.0000 </r>
       <r>  -15.5638    1.0000 </r>
       <r>  -15.5062    1.0000 </r>
       <r>  -15.4996    1.0000 </r>
       <r>  -15.4996    1.0000 </r>
       <r>  -15.4559    1.0000 </r>
       <r>  -15.4453    1.0000 </r>
       <r>  -15.3997    1.0000 </r>
       <r>  -12.2050    1.0000 </r>
       <r>  -11.5561    1.0000 </r>
       <r>  -11.3574    1.0000 </r>
       <r>  -11.3574    1.0000 </r>
       <r>   -6.1427    1.0000 </r>
       <r>   -5.9811    1.0000 </r>
       <r>   -3.9268    1.0000 </r>
       <r>   -3.4798    1.0000 </r>
       <r>   -3.4798    1.0000 </r>
       <r>   -2.7722    1.0000 </r>
       <r>   -2.7722    1.0000 </r>
       <r>   -2.5907    1.0000 </r>
       <r>   -2.3164    1.0000 </r>
       <r>   -2.0783    1.0000 </r>
       <r>   -2.0743    1.0000 </r>
       <r>   -2.0743    1.0000 </r>
       <r>    0.5295    0.0000 </r>
       <r>    1.0299    0.0000 </r>
       <r>    2.4184    0.0000 </r>
       <r>    2.4184    0.0000 </r>
       <r>    2.8925    0.0000 </r>
       <r>    2.8923    0.0000 </r>
       <r>    3.7115    0.0000 </r>
       <r>    3.7115    0.0000 </r>
       <r>    3.9645    0.0000 </r>
       <r>    4.4471    0.0000 </r>
       <r>    4.5976    0.0000 </r>
       <r>    4.8130    0.0000 </r>
       <r>    5.0993    0.0000 </r>
       <r>    5.4380    0.0000 </r>
       <r>    5.4380    0.0000 </r>
       <r>    5.4952    0.0000 </r>
       <r>    6.2917    0.0000 </r>
       <r>    6.2917    0.0000 </r>
       <r>    6.5833    0.0000 </r>
       <r>    6.5833    0.0000 </r>
       <r>    6.6354    0.0000 </r>
       <r>    6.8161    0.0000 </r>
      </set>
      <set comment="kpoint 5">
       <r>  -15.6477    1.0000 </r>
       <r>  -15.6477    1.0000 </r>
       <r>  -15.5698    1.0000 </r>
       <r>  -15.5604    1.0000 </r>
       <r>  -15.5088    1.0000 </r>
       <r>  -15.5058    1.0000 </r>
       <r>  -15.5058    1.0000 </r>
       <r>  -15.4551    1.0000 </r>
       <r>  -15.4461    1.0000 </r>
       <r>  -15.4125    1.0000 </r>
       <r>  -12.1628    1.0000 </r>
       <r>  -11.6124    1.0000 </r>
       <r>  -11.3556    1.0000 </r>
       <r>  -11.3556    1.0000 </r>
       <r>   -6.1314    1.0000 </r>
       <r>   -5.9931    1.0000 </r>
       <r>   -3.7932    1.0000 </r>
       <r>   -3.5661    1.0000 </r>
       <r>   -3.5661    1.0000 </r>
       <r>   -2.6868    1.0000 </r>
       <r>   -2.6868    1.0000 </r>
       <r>   -2.5569    1.0000 </r>
       <r>   -2.4302    1.0000 </r>
       <r>   -2.1222    1.0000 </r>
       <r>   -2.0542    1.0000 </r>
       <r>   -2.0542    1.0000 </r>
       <r>    0.5456    0.0000 </r>
       <r>    1.0636    0.0000 </r>
       <r>    2.5108    0.0000 </r>
       <r>    2.5108    0.0000 </r>
       <r>    2.7120    0.0000 </r>
       <r>    2.8740    0.0000 </r>
       <r>    3.6545    0.0000 </r>
       <r>    3.6545    0.0000 </r>
       <r>    3.9634    0.0000 </r>
       <r>    4.5381    0.0000 </r>
       <r>    4.6503    0.0000 </r>
       <r>    4.8461    0.0000 </r>
       <r>    5.1885    0.0000 </r>
       <r>    5.1885    0.0000 </r>
       <r>    5.2132    0.0000 </r>
       <r>    5.3721    0.0000 </r>
       <r>    6.1292    0.0000 </r>
       <r>    6.1292    0.0000 </r>
       <r>    6.6574    0.0000 </r>
       <r>    6.6576    0.0000 </r>
       <r>    6.6628    0.0000 </r>
       <r>    6.7663    0.0000 </r>
      </set>
      <set comment="kpoint 6">
       <r>  -15.6415    1.0000 </r>
       <r>  -15.6415    1.0000 </r>
       <r>  -15.5567    1.0000 </r>
       <r>  -15.5563    1.0000 </r>
       <r>  -15.5125    1.0000 </r>
       <r>  -15.5125    1.0000 </r>
       <r>  -15.5106    1.0000 </r>
       <r>  -15.4542    1.0000 </r>
       <r>  -15.4470    1.0000 </r>
       <r>  -15.4280    1.0000 </r>
       <r>  -12.1103    1.0000 </r>
       <r>  -11.6790    1.0000 </r>
       <r>  -11.3538    1.0000 </r>
       <r>  -11.3538    1.0000 </r>
       <r>   -6.1172    1.0000 </r>
       <r>   -6.0078    1.0000 </r>
       <r>   -3.6371    1.0000 </r>
       <r>   -3.6371    1.0000 </r>
       <r>   -3.6340    1.0000 </r>
       <r>   -2.6186    1.0000 </r>
       <r>   -2.6186    1.0000 </r>
       <r>   -2.5677    1.0000 </r>
       <r>   -2.5149    1.0000 </r>
       <r>   -2.1741    1.0000 </r>
       <r>   -2.0323    1.0000 </r>
       <r>   -2.0323    1.0000 </r>
       <r>    0.5785    0.0000 </r>
       <r>    1.0605    0.0000 </r>
       <r>    2.5821    0.0000 </r>
       <r>    2.6258    0.0000 </r>
       <r>    2.6258    0.0000 </r>
       <r>    2.8364    0.0000 </r>
       <r>    3.5859    0.0000 </r>
       <r>    3.5859    0.0000 </r>
       <r>    4.0100    0.0000 </r>
       <r>    4.6385    0.0000 </r>
       <r>    4.6407    0.0000 </r>
       <r>    4.8799    0.0000 </r>
       <r>    4.9409    0.0000 </r>
       <r>    4.9409    0.0000 </r>
       <r>    5.2861    0.0000 </r>
       <r>    5.3327    0.0000 </r>
       <r>    5.9852    0.0000 </r>
       <r>    5.9853    0.0000 </r>
       <r>    6.5299    0.0000 </r>
       <r>    6.5512    0.0000 </r>
       <r>    6.7291    0.0000 </r>
       <r>    6.7449    0.0000 </r>
      </set>
      <set comment="kpoint 7">
       <r>  -15.6358    1.0000 </r>
       <r>  -15.6358    1.0000 </r>
       <r>  -15.5518    1.0000 </r>
       <r>  -15.5458    1.0000 </r>
       <r>  -15.5187    1.0000 </r>
       <r>  -15.5187    1.0000 </r>
       <r>  -15.5088    1.0000 </r>
       <r>  -15.4531    1.0000 </r>
       <r>  -15.4481    1.0000 </r>
       <r>  -15.4455    1.0000 </r>
       <r>  -12.0487    1.0000 </r>
       <r>  -11.7523    1.0000 </r>
       <r>  -11.3522    1.0000 </r>
       <r>  -11.3522    1.0000 </r>
       <r>   -6.1006    1.0000 </r>
       <r>   -6.0249    1.0000 </r>
       <r>   -3.6897    1.0000 </r>
       <r>   -3.6897    1.0000 </r>
       <r>   -3.4570    1.0000 </r>
       <r>   -2.7250    1.0000 </r>
       <r>   -2.5700    1.0000 </r>
       <r>   -2.5700    1.0000 </r>
       <r>   -2.4659    1.0000 </r>
       <r>   -2.2315    1.0000 </r>
       <r>   -2.0122    1.0000 </r>
       <r>   -2.0122    1.0000 </r>
       <r>    0.6329    0.0000 </r>
       <r>    1.0070    0.0000 </r>
       <r>    2.5320    0.0000 </r>
       <r>    2.7547    0.0000 </r>
       <r>    2.7547    0.0000 </r>
       <r>    2.7776    0.0000 </r>
       <r>    3.5047    0.0000 </r>
       <r>    3.5047    0.0000 </r>
       <r>    4.0883    0.0000 </r>
       <r>    4.5524    0.0000 </r>
       <r>    4.7334    0.0000 </r>
       <r>    4.7334    0.0000 </r>
       <r>    4.7430    0.0000 </r>
       <r>    4.9059    0.0000 </r>
       <r>    5.3344    0.0000 </r>
       <r>    5.3619    0.0000 </r>
       <r>    5.8767    0.0000 </r>
       <r>    5.8767    0.0000 </r>
       <r>    6.4281    0.0000 </r>
       <r>    6.5231    0.0000 </r>
       <r>    6.5679    0.0000 </r>
       <r>    6.8177    0.0000 </r>
      </set>
      <set comment="kpoint 8">
       <r>  -15.6316    1.0000 </r>
       <r>  -15.6316    1.0000 </r>
       <r>  -15.5472    1.0000 </r>
       <r>  -15.5416    1.0000 </r>
       <r>  -15.5232    1.0000 </r>
       <r>  -15.5232    1.0000 </r>
       <r>  -15.4990    1.0000 </r>
       <r>  -15.4642    1.0000 </r>
       <r>  -15.4519    1.0000 </r>
       <r>  -15.4493    1.0000 </r>
       <r>  -11.9799    1.0000 </r>
       <r>  -11.8290    1.0000 </r>
       <r>  -11.3512    1.0000 </r>
       <r>  -11.3512    1.0000 </r>
       <r>   -6.0822    1.0000 </r>
       <r>   -6.0435    1.0000 </r>
       <r>   -3.7219    1.0000 </r>
       <r>   -3.7219    1.0000 </r>
       <r>   -3.2703    1.0000 </r>
       <r>   -2.8979    1.0000 </r>
       <r>   -2.5411    1.0000 </r>
       <r>   -2.5411    1.0000 </r>
       <r>   -2.4111    1.0000 </r>
       <r>   -2.2918    1.0000 </r>
       <r>   -1.9981    1.0000 </r>
       <r>   -1.9981    1.0000 </r>
       <r>    0.7108    0.0000 </r>
       <r>    0.9145    0.0000 </r>
       <r>    2.5545    0.0000 </r>
       <r>    2.7018    0.0000 </r>
       <r>    2.8755    0.0000 </r>
       <r>    2.8755    0.0000 </r>
       <r>    3.4196    0.0000 </r>
       <r>    3.4196    0.0000 </r>
       <r>    4.1890    0.0000 </r>
       <r>    4.4315    0.0000 </r>
       <r>    4.5961    0.0000 </r>
       <r>    4.5961    0.0000 </r>
       <r>    4.8305    0.0000 </r>
       <r>    4.9128    0.0000 </r>
       <r>    5.3689    0.0000 </r>
       <r>    5.3915    0.0000 </r>
       <r>    5.8096    0.0000 </r>
       <r>    5.8096    0.0000 </r>
       <r>    6.3732    0.0000 </r>
       <r>    6.4453    0.0000 </r>
       <r>    6.6215    0.0000 </r>
       <r>    6.8661    0.0000 </r>
      </set>
      <set comment="kpoint 9">
       <r>  -15.6300    1.0000 </r>
       <r>  -15.6300    1.0000 </r>
       <r>  -15.5432    1.0000 </r>
       <r>  -15.5432    1.0000 </r>
       <r>  -15.5248    1.0000 </r>
       <r>  -15.5248    1.0000 </r>
       <r>  -15.4828    1.0000 </r>
       <r>  -15.4828    1.0000 </r>
       <r>  -15.4506    1.0000 </r>
       <r>  -15.4506    1.0000 </r>
       <r>  -11.9058    1.0000 </r>
       <r>  -11.9058    1.0000 </r>
       <r>  -11.3508    1.0000 </r>
       <r>  -11.3508    1.0000 </r>
       <r>   -6.0629    1.0000 </r>
       <r>   -6.0629    1.0000 </r>
       <r>   -3.7328    1.0000 </r>
       <r>   -3.7328    1.0000 </r>
       <r>   -3.0816    1.0000 </r>
       <r>   -3.0816    1.0000 </r>
       <r>   -2.5315    1.0000 </r>
       <r>   -2.5315    1.0000 </r>
       <r>   -2.3524    1.0000 </r>
       <r>   -2.3524    1.0000 </r>
       <r>   -1.9930    1.0000 </r>
       <r>   -1.9930    1.0000 </r>
       <r>    0.8086    0.0000 </r>
       <r>    0.8086    0.0000 </r>
       <r>    2.6207    0.0000 </r>
       <r>    2.6207    0.0000 </r>
       <r>    2.9329    0.0000 </r>
       <r>    2.9329    0.0000 </r>
       <r>    3.3752    0.0000 </r>
       <r>    3.3752    0.0000 </r>
       <r>    4.3058    0.0000 </r>
       <r>    4.3058    0.0000 </r>
       <r>    4.5484    0.0000 </r>
       <r>    4.5484    0.0000 </r>
       <r>    4.8892    0.0000 </r>
       <r>    4.8892    0.0000 </r>
       <r>    5.3911    0.0000 </r>
       <r>    5.3911    0.0000 </r>
       <r>    5.7869    0.0000 </r>
       <r>    5.7869    0.0000 </r>
       <r>    6.3776    0.0000 </r>
       <r>    6.3776    0.0000 </r>
       <r>    6.8343    0.0000 </r>
       <r>    6.8477    0.0000 </r>
      </set>
     </set>
     <set comment="spin 2">
      <set comment="kpoint 1">
       <r>  -15.6550    1.0000 </r>
       <r>  -15.6550    1.0000 </r>
       <r>  -15.6039    1.0000 </r>
       <r>  -15.5678    1.0000 </r>
       <r>  -15.5064    1.0000 </r>
       <r>  -15.4916    1.0000 </r>
       <r>  -15.4916    1.0000 </r>
       <r>  -15.4627    1.0000 </r>
       <r>  -15.4504    1.0000 </r>
       <r>  -15.3878    1.0000 </r>
       <r>  -12.0087    1.0000 </r>
       <r>  -11.1782    1.0000 </r>
       <r>  -11.0562    1.0000 </r>
       <r>  -11.0562    1.0000 </r>
       <r>   -6.1128    1.0000 </r>
       <r>   -5.8573    1.0000 </r>
       <r>   -3.9881    1.0000 </r>
       <r>   -3.0775    1.0000 </r>
       <r>   -3.0775    1.0000 </r>
       <r>   -2.7295    1.0000 </r>
       <r>   -2.7295    1.0000 </r>
       <r>   -2.1032    1.0000 </r>
       <r>   -1.9544    1.0000 </r>
       <r>   -1.7167    0.9615 </r>
       <r>   -1.7167    0.9615 </r>
       <r>   -1.4199    0.0000 </r>
       <r>    0.6712    0.0000 </r>
       <r>    1.0521    0.0000 </r>
       <r>    2.4456    0.0000 </r>
       <r>    2.4456    0.0000 </r>
       <r>    2.9770    0.0000 </r>
       <r>    3.4078    0.0000 </r>
       <r>    3.8797    0.0000 </r>
       <r>    3.8797    0.0000 </r>
       <r>    4.4761    0.0000 </r>
       <r>    4.4977    0.0000 </r>
       <r>    4.4991    0.0000 </r>
       <r>    4.6554    0.0000 </r>
       <r>    4.9833    0.0000 </r>
       <r>    5.8951    0.0000 </r>
       <r>    5.8951    0.0000 </r>
       <r>    5.9389    0.0000 </r>
       <r>    6.5261    0.0000 </r>
       <r>    6.6105    0.0000 </r>
       <r>    6.6105    0.0000 </r>
       <r>    7.0988    0.0000 </r>
       <r>    7.0995    0.0000 </r>
       <r>    7.1651    0.0000 </r>
      </set>
      <set comment="kpoint 2">
       <r>  -15.6541    1.0000 </r>
       <r>  -15.6541    1.0000 </r>
       <r>  -15.6019    1.0000 </r>
       <r>  -15.5673    1.0000 </r>
       <r>  -15.5068    1.0000 </r>
       <r>  -15.4927    1.0000 </r>
       <r>  -15.4927    1.0000 </r>
       <r>  -15.4626    1.0000 </r>
       <r>  -15.4505    1.0000 </r>
       <r>  -15.3898    1.0000 </r>
       <r>  -12.0022    1.0000 </r>
       <r>  -11.1881    1.0000 </r>
       <r>  -11.0558    1.0000 </r>
       <r>  -11.0558    1.0000 </r>
       <r>   -6.1099    1.0000 </r>
       <r>   -5.8594    1.0000 </r>
       <r>   -3.9665    1.0000 </r>
       <r>   -3.1125    1.0000 </r>
       <r>   -3.1125    1.0000 </r>
       <r>   -2.6967    1.0000 </r>
       <r>   -2.6967    1.0000 </r>
       <r>   -2.0977    1.0000 </r>
       <r>   -1.9738    1.0000 </r>
       <r>   -1.7095    0.9414 </r>
       <r>   -1.7095    0.9414 </r>
       <r>   -1.4279    0.0000 </r>
       <r>    0.6702    0.0000 </r>
       <r>    1.0667    0.0000 </r>
       <r>    2.4572    0.0000 </r>
       <r>    2.4572    0.0000 </r>
       <r>    2.9786    0.0000 </r>
       <r>    3.3607    0.0000 </r>
       <r>    3.8705    0.0000 </r>
       <r>    3.8705    0.0000 </r>
       <r>    4.2564    0.0000 </r>
       <r>    4.5155    0.0000 </r>
       <r>    4.6740    0.0000 </r>
       <r>    4.7437    0.0000 </r>
       <r>    4.9893    0.0000 </r>
       <r>    5.8600    0.0000 </r>
       <r>    5.8600    0.0000 </r>
       <r>    5.8776    0.0000 </r>
       <r>    6.5531    0.0000 </r>
       <r>    6.6135    0.0000 </r>
       <r>    6.6135    0.0000 </r>
       <r>    6.9225    0.0000 </r>
       <r>    6.9225    0.0000 </r>
       <r>    7.1961    0.0000 </r>
      </set>
      <set comment="kpoint 3">
       <r>  -15.6513    1.0000 </r>
       <r>  -15.6513    1.0000 </r>
       <r>  -15.5962    1.0000 </r>
       <r>  -15.5659    1.0000 </r>
       <r>  -15.5082    1.0000 </r>
       <r>  -15.4957    1.0000 </r>
       <r>  -15.4957    1.0000 </r>
       <r>  -15.4622    1.0000 </r>
       <r>  -15.4508    1.0000 </r>
       <r>  -15.3957    1.0000 </r>
       <r>  -11.9826    1.0000 </r>
       <r>  -11.2172    1.0000 </r>
       <r>  -11.0548    1.0000 </r>
       <r>  -11.0548    1.0000 </r>
       <r>   -6.1014    1.0000 </r>
       <r>   -5.8657    1.0000 </r>
       <r>   -3.9027    1.0000 </r>
       <r>   -3.1898    1.0000 </r>
       <r>   -3.1898    1.0000 </r>
       <r>   -2.6261    1.0000 </r>
       <r>   -2.6261    1.0000 </r>
       <r>   -2.0814    1.0000 </r>
       <r>   -2.0306    1.0000 </r>
       <r>   -1.6888    0.8362 </r>
       <r>   -1.6888    0.8362 </r>
       <r>   -1.4515    0.0000 </r>
       <r>    0.6686    0.0000 </r>
       <r>    1.1058    0.0000 </r>
       <r>    2.4921    0.0000 </r>
       <r>    2.4921    0.0000 </r>
       <r>    2.9809    0.0000 </r>
       <r>    3.2168    0.0000 </r>
       <r>    3.8445    0.0000 </r>
       <r>    3.8445    0.0000 </r>
       <r>    4.1129    0.0000 </r>
       <r>    4.5635    0.0000 </r>
       <r>    4.7265    0.0000 </r>
       <r>    4.9724    0.0000 </r>
       <r>    5.0069    0.0000 </r>
       <r>    5.7326    0.0000 </r>
       <r>    5.7418    0.0000 </r>
       <r>    5.7418    0.0000 </r>
       <r>    6.5904    0.0000 </r>
       <r>    6.5904    0.0000 </r>
       <r>    6.6328    0.0000 </r>
       <r>    6.7509    0.0000 </r>
       <r>    6.7509    0.0000 </r>
       <r>    7.1547    0.0000 </r>
      </set>
      <set comment="kpoint 4">
       <r>  -15.6469    1.0000 </r>
       <r>  -15.6469    1.0000 </r>
       <r>  -15.5870    1.0000 </r>
       <r>  -15.5635    1.0000 </r>
       <r>  -15.5104    1.0000 </r>
       <r>  -15.5006    1.0000 </r>
       <r>  -15.5006    1.0000 </r>
       <r>  -15.4616    1.0000 </r>
       <r>  -15.4514    1.0000 </r>
       <r>  -15.4052    1.0000 </r>
       <r>  -11.9505    1.0000 </r>
       <r>  -11.2636    1.0000 </r>
       <r>  -11.0532    1.0000 </r>
       <r>  -11.0532    1.0000 </r>
       <r>   -6.0878    1.0000 </r>
       <r>   -5.8760    1.0000 </r>
       <r>   -3.8000    1.0000 </r>
       <r>   -3.2767    1.0000 </r>
       <r>   -3.2767    1.0000 </r>
       <r>   -2.5502    1.0000 </r>
       <r>   -2.5502    1.0000 </r>
       <r>   -2.1215    1.0000 </r>
       <r>   -2.0545    1.0000 </r>
       <r>   -1.6566    0.5278 </r>
       <r>   -1.6566    0.5278 </r>
       <r>   -1.4891    0.0000 </r>
       <r>    0.6710    0.0000 </r>
       <r>    1.1556    0.0000 </r>
       <r>    2.5504    0.0000 </r>
       <r>    2.5504    0.0000 </r>
       <r>    2.9774    0.0000 </r>
       <r>    3.0084    0.0000 </r>
       <r>    3.8054    0.0000 </r>
       <r>    3.8054    0.0000 </r>
       <r>    4.0676    0.0000 </r>
       <r>    4.6395    0.0000 </r>
       <r>    4.7995    0.0000 </r>
       <r>    5.0344    0.0000 </r>
       <r>    5.1469    0.0000 </r>
       <r>    5.5378    0.0000 </r>
       <r>    5.5378    0.0000 </r>
       <r>    5.5695    0.0000 </r>
       <r>    6.4457    0.0000 </r>
       <r>    6.4457    0.0000 </r>
       <r>    6.7604    0.0000 </r>
       <r>    6.7717    0.0000 </r>
       <r>    6.7718    0.0000 </r>
       <r>    6.9658    0.0000 </r>
      </set>
      <set comment="kpoint 5">
       <r>  -15.6413    1.0000 </r>
       <r>  -15.6413    1.0000 </r>
       <r>  -15.5749    1.0000 </r>
       <r>  -15.5604    1.0000 </r>
       <r>  -15.5129    1.0000 </r>
       <r>  -15.5066    1.0000 </r>
       <r>  -15.5066    1.0000 </r>
       <r>  -15.4609    1.0000 </r>
       <r>  -15.4522    1.0000 </r>
       <r>  -15.4181    1.0000 </r>
       <r>  -11.9064    1.0000 </r>
       <r>  -11.3241    1.0000 </r>
       <r>  -11.0513    1.0000 </r>
       <r>  -11.0513    1.0000 </r>
       <r>   -6.0700    1.0000 </r>
       <r>   -5.8901    1.0000 </r>
       <r>   -3.6635    1.0000 </r>
       <r>   -3.3581    1.0000 </r>
       <r>   -3.3581    1.0000 </r>
       <r>   -2.4833    1.0000 </r>
       <r>   -2.4833    1.0000 </r>
       <r>   -2.2417    1.0000 </r>
       <r>   -2.0178    1.0000 </r>
       <r>   -1.6173    0.1484 </r>
       <r>   -1.6173    0.1484 </r>
       <r>   -1.5383    0.0005 </r>
       <r>    0.6836    0.0000 </r>
       <r>    1.1933    0.0000 </r>
       <r>    2.6317    0.0000 </r>
       <r>    2.6317    0.0000 </r>
       <r>    2.8044    0.0000 </r>
       <r>    2.9605    0.0000 </r>
       <r>    3.7566    0.0000 </r>
       <r>    3.7566    0.0000 </r>
       <r>    4.0886    0.0000 </r>
       <r>    4.7370    0.0000 </r>
       <r>    4.8544    0.0000 </r>
       <r>    5.0684    0.0000 </r>
       <r>    5.2664    0.0000 </r>
       <r>    5.2859    0.0000 </r>
       <r>    5.2859    0.0000 </r>
       <r>    5.4493    0.0000 </r>
       <r>    6.2882    0.0000 </r>
       <r>    6.2883    0.0000 </r>
       <r>    6.7683    0.0000 </r>
       <r>    6.8583    0.0000 </r>
       <r>    6.8677    0.0000 </r>
       <r>    6.9014    0.0000 </r>
      </set>
      <set comment="kpoint 6">
       <r>  -15.6351    1.0000 </r>
       <r>  -15.6351    1.0000 </r>
       <r>  -15.5614    1.0000 </r>
       <r>  -15.5566    1.0000 </r>
       <r>  -15.5148    1.0000 </r>
       <r>  -15.5133    1.0000 </r>
       <r>  -15.5133    1.0000 </r>
       <r>  -15.4599    1.0000 </r>
       <r>  -15.4531    1.0000 </r>
       <r>  -15.4336    1.0000 </r>
       <r>  -11.8515    1.0000 </r>
       <r>  -11.3954    1.0000 </r>
       <r>  -11.0495    1.0000 </r>
       <r>  -11.0495    1.0000 </r>
       <r>   -6.0488    1.0000 </r>
       <r>   -5.9076    1.0000 </r>
       <r>   -3.5000    1.0000 </r>
       <r>   -3.4266    1.0000 </r>
       <r>   -3.4266    1.0000 </r>
       <r>   -2.4307    1.0000 </r>
       <r>   -2.4307    1.0000 </r>
       <r>   -2.3867    1.0000 </r>
       <r>   -1.9721    1.0000 </r>
       <r>   -1.5963    0.0510 </r>
       <r>   -1.5766    0.0141 </r>
       <r>   -1.5766    0.0141 </r>
       <r>    0.7129    0.0000 </r>
       <r>    1.1921    0.0000 </r>
       <r>    2.6627    0.0000 </r>
       <r>    2.7329    0.0000 </r>
       <r>    2.7329    0.0000 </r>
       <r>    2.9237    0.0000 </r>
       <r>    3.6989    0.0000 </r>
       <r>    3.6988    0.0000 </r>
       <r>    4.1497    0.0000 </r>
       <r>    4.8302    0.0000 </r>
       <r>    4.8468    0.0000 </r>
       <r>    5.0343    0.0000 </r>
       <r>    5.0343    0.0000 </r>
       <r>    5.1033    0.0000 </r>
       <r>    5.3454    0.0000 </r>
       <r>    5.4264    0.0000 </r>
       <r>    6.1544    0.0000 </r>
       <r>    6.1544    0.0000 </r>
       <r>    6.6346    0.0000 </r>
       <r>    6.7611    0.0000 </r>
       <r>    6.9487    0.0000 </r>
       <r>    6.9644    0.0000 </r>
      </set>
      <set comment="kpoint 7">
       <r>  -15.6293    1.0000 </r>
       <r>  -15.6293    1.0000 </r>
       <r>  -15.5524    1.0000 </r>
       <r>  -15.5494    1.0000 </r>
       <r>  -15.5195    1.0000 </r>
       <r>  -15.5195    1.0000 </r>
       <r>  -15.5135    1.0000 </r>
       <r>  -15.4589    1.0000 </r>
       <r>  -15.4542    1.0000 </r>
       <r>  -15.4512    1.0000 </r>
       <r>  -11.7869    1.0000 </r>
       <r>  -11.4737    1.0000 </r>
       <r>  -11.0479    1.0000 </r>
       <r>  -11.0479    1.0000 </r>
       <r>   -6.0252    1.0000 </r>
       <r>   -5.9281    1.0000 </r>
       <r>   -3.4781    1.0000 </r>
       <r>   -3.4781    1.0000 </r>
       <r>   -3.3172    1.0000 </r>
       <r>   -2.5523    1.0000 </r>
       <r>   -2.3936    1.0000 </r>
       <r>   -2.3936    1.0000 </r>
       <r>   -1.9185    1.0000 </r>
       <r>   -1.6603    0.5690 </r>
       <r>   -1.5413    0.0007 </r>
       <r>   -1.5413    0.0007 </r>
       <r>    0.7640    0.0000 </r>
       <r>    1.1377    0.0000 </r>
       <r>    2.6098    0.0000 </r>
       <r>    2.8451    0.0000 </r>
       <r>    2.8451    0.0000 </r>
       <r>    2.8648    0.0000 </r>
       <r>    3.6326    0.0000 </r>
       <r>    3.6326    0.0000 </r>
       <r>    4.2376    0.0000 </r>
       <r>    4.7277    0.0000 </r>
       <r>    4.8228    0.0000 </r>
       <r>    4.8228    0.0000 </r>
       <r>    4.9562    0.0000 </r>
       <r>    5.1304    0.0000 </r>
       <r>    5.4012    0.0000 </r>
       <r>    5.4691    0.0000 </r>
       <r>    6.0528    0.0000 </r>
       <r>    6.0528    0.0000 </r>
       <r>    6.6065    0.0000 </r>
       <r>    6.6541    0.0000 </r>
       <r>    6.8005    0.0000 </r>
       <r>    7.0210    0.0000 </r>
      </set>
      <set comment="kpoint 8">
       <r>  -15.6251    1.0000 </r>
       <r>  -15.6251    1.0000 </r>
       <r>  -15.5483    1.0000 </r>
       <r>  -15.5439    1.0000 </r>
       <r>  -15.5241    1.0000 </r>
       <r>  -15.5241    1.0000 </r>
       <r>  -15.5046    1.0000 </r>
       <r>  -15.4700    1.0000 </r>
       <r>  -15.4577    1.0000 </r>
       <r>  -15.4553    1.0000 </r>
       <r>  -11.7146    1.0000 </r>
       <r>  -11.5551    1.0000 </r>
       <r>  -11.0468    1.0000 </r>
       <r>  -11.0468    1.0000 </r>
       <r>   -6.0004    1.0000 </r>
       <r>   -5.9509    1.0000 </r>
       <r>   -3.5098    1.0000 </r>
       <r>   -3.5098    1.0000 </r>
       <r>   -3.1233    1.0000 </r>
       <r>   -2.7340    1.0000 </r>
       <r>   -2.3717    1.0000 </r>
       <r>   -2.3717    1.0000 </r>
       <r>   -1.8585    1.0000 </r>
       <r>   -1.7271    0.9805 </r>
       <r>   -1.5175    0.0001 </r>
       <r>   -1.5175    0.0001 </r>
       <r>    0.8393    0.0000 </r>
       <r>    1.0431    0.0000 </r>
       <r>    2.6345    0.0000 </r>
       <r>    2.7877    0.0000 </r>
       <r>    2.9459    0.0000 </r>
       <r>    2.9459    0.0000 </r>
       <r>    3.5668    0.0000 </r>
       <r>    3.5668    0.0000 </r>
       <r>    4.3449    0.0000 </r>
       <r>    4.5975    0.0000 </r>
       <r>    4.6826    0.0000 </r>
       <r>    4.6826    0.0000 </r>
       <r>    5.0496    0.0000 </r>
       <r>    5.1374    0.0000 </r>
       <r>    5.4456    0.0000 </r>
       <r>    5.4945    0.0000 </r>
       <r>    5.9894    0.0000 </r>
       <r>    5.9894    0.0000 </r>
       <r>    6.5975    0.0000 </r>
       <r>    6.6735    0.0000 </r>
       <r>    6.7162    0.0000 </r>
       <r>    7.0691    0.0000 </r>
      </set>
      <set comment="kpoint 9">
       <r>  -15.6235    1.0000 </r>
       <r>  -15.6235    1.0000 </r>
       <r>  -15.5448    1.0000 </r>
       <r>  -15.5448    1.0000 </r>
       <r>  -15.5257    1.0000 </r>
       <r>  -15.5257    1.0000 </r>
       <r>  -15.4886    1.0000 </r>
       <r>  -15.4886    1.0000 </r>
       <r>  -15.4565    1.0000 </r>
       <r>  -15.4565    1.0000 </r>
       <r>  -11.6364    1.0000 </r>
       <r>  -11.6364    1.0000 </r>
       <r>  -11.0464    1.0000 </r>
       <r>  -11.0464    1.0000 </r>
       <r>   -5.9753    1.0000 </r>
       <r>   -5.9753    1.0000 </r>
       <r>   -3.5206    1.0000 </r>
       <r>   -3.5206    1.0000 </r>
       <r>   -2.9264    1.0000 </r>
       <r>   -2.9264    1.0000 </r>
       <r>   -2.3645    1.0000 </r>
       <r>   -2.3645    1.0000 </r>
       <r>   -1.7940    1.0000 </r>
       <r>   -1.7940    1.0000 </r>
       <r>   -1.5090    0.0000 </r>
       <r>   -1.5090    0.0000 </r>
       <r>    0.9361    0.0000 </r>
       <r>    0.9361    0.0000 </r>
       <r>    2.7040    0.0000 </r>
       <r>    2.7040    0.0000 </r>
       <r>    2.9906    0.0000 </r>
       <r>    2.9906    0.0000 </r>
       <r>    3.5350    0.0000 </r>
       <r>    3.5350    0.0000 </r>
       <r>    4.4666    0.0000 </r>
       <r>    4.4666    0.0000 </r>
       <r>    4.6337    0.0000 </r>
       <r>    4.6337    0.0000 </r>
       <r>    5.1123    0.0000 </r>
       <r>    5.1123    0.0000 </r>
       <r>    5.4808    0.0000 </r>
       <r>    5.4808    0.0000 </r>
       <r>    5.9679    0.0000 </r>
       <r>    5.9679    0.0000 </r>
       <r>    6.6027    0.0000 </r>
       <r>    6.6027    0.0000 </r>
       <r>    6.9474    0.0000 </r>
       <r>    6.9522    0.0000 </r>
      </set>
     </set>
    </set>
   </array>
  </eigenvalues>
  <separator name="orbital magnetization" >
   <v name="MAGDIPOLOUT">      0.00000000      0.00000000      0.00000000</v>
  </separator>
  <dos>
   <i name="efermi">     -1.65414367 </i>
   <total>
    <array>
     <dimension dim="1">gridpoints</dimension>
     <dimension dim="2">spin</dimension>
     <field>energy</field>
     <field>total</field>
     <field>integrated</field>
     <set>
      <set comment="spin 1">
       <r>   -16.8043     0.0000     0.0000 </r>
       <r>   -16.7205     0.0000     0.0000 </r>
       <r>   -16.6367     0.0000     0.0000 </r>
       <r>   -16.5529     0.0000     0.0000 </r>
       <r>   -16.4691     0.0000     0.0000 </r>
       <r>   -16.3853     0.0000     0.0000 </r>
       <r>   -16.3015     0.0000     0.0000 </r>
       <r>   -16.2176     0.0000     0.0000 </r>
       <r>   -16.1338     0.0000     0.0000 </r>
       <r>   -16.0500     0.0000     0.0000 </r>
       <r>   -15.9662     0.0000     0.0000 </r>
       <r>   -15.8824     0.0000     0.0000 </r>
       <r>   -15.7986     0.0004     0.0000 </r>
       <r>   -15.7148     0.7868     0.0660 </r>
       <r>   -15.6310    16.1598     1.4204 </r>
       <r>   -15.5472    27.4752     3.7231 </r>
       <r>   -15.4633    45.3227     7.5216 </r>
       <r>   -15.3795    26.5540     9.7472 </r>
       <r>   -15.2957     2.9934     9.9980 </r>
       <r>   -15.2119     0.0235    10.0000 </r>
       <r>   -15.1281     0.0000    10.0000 </r>
       <r>   -15.0443     0.0000    10.0000 </r>
       <r>   -14.9605     0.0000    10.0000 </r>
       <r>   -14.8767     0.0000    10.0000 </r>
       <r>   -14.7929     0.0000    10.0000 </r>
       <r>   -14.7090     0.0000    10.0000 </r>
       <r>   -14.6252     0.0000    10.0000 </r>
       <r>   -14.5414     0.0000    10.0000 </r>
       <r>   -14.4576     0.0000    10.0000 </r>
       <r>   -14.3738     0.0000    10.0000 </r>
       <r>   -14.2900     0.0000    10.0000 </r>
       <r>   -14.2062     0.0000    10.0000 </r>
       <r>   -14.1224     0.0000    10.0000 </r>
       <r>   -14.0386     0.0000    10.0000 </r>
       <r>   -13.9547     0.0000    10.0000 </r>
       <r>   -13.8709     0.0000    10.0000 </r>
       <r>   -13.7871     0.0000    10.0000 </r>
       <r>   -13.7033     0.0000    10.0000 </r>
       <r>   -13.6195     0.0000    10.0000 </r>
       <r>   -13.5357     0.0000    10.0000 </r>
       <r>   -13.4519     0.0000    10.0000 </r>
       <r>   -13.3681     0.0000    10.0000 </r>
       <r>   -13.2843     0.0000    10.0000 </r>
       <r>   -13.2004     0.0000    10.0000 </r>
       <r>   -13.1166     0.0000    10.0000 </r>
       <r>   -13.0328     0.0000    10.0000 </r>
       <r>   -12.9490     0.0000    10.0000 </r>
       <r>   -12.8652     0.0000    10.0000 </r>
       <r>   -12.7814     0.0000    10.0000 </r>
       <r>   -12.6976     0.0000    10.0000 </r>
       <r>   -12.6138     0.0000    10.0000 </r>
       <r>   -12.5300     0.0000    10.0000 </r>
       <r>   -12.4461     0.0000    10.0000 </r>
       <r>   -12.3623     0.0035    10.0003 </r>
       <r>   -12.2785     0.7959    10.0670 </r>
       <r>   -12.1947     3.8578    10.3903 </r>
       <r>   -12.1109     2.7357    10.6196 </r>
       <r>   -12.0271     2.0200    10.7889 </r>
       <r>   -11.9433     1.7630    10.9367 </r>
       <r>   -11.8595     1.6507    11.0750 </r>
       <r>   -11.7757     1.6283    11.2115 </r>
       <r>   -11.6918     1.6927    11.3534 </r>
       <r>   -11.6080     1.9016    11.5127 </r>
       <r>   -11.5242     2.6419    11.7341 </r>
       <r>   -11.4404     3.0856    11.9928 </r>
       <r>   -11.3566    11.7430    12.9770 </r>
       <r>   -11.2728    11.9709    13.9802 </r>
       <r>   -11.1890     0.2356    14.0000 </r>
       <r>   -11.1052     0.0000    14.0000 </r>
       <r>   -11.0214     0.0000    14.0000 </r>
       <r>   -10.9375     0.0000    14.0000 </r>
       <r>   -10.8537     0.0000    14.0000 </r>
       <r>   -10.7699     0.0000    14.0000 </r>
       <r>   -10.6861     0.0000    14.0000 </r>
       <r>   -10.6023     0.0000    14.0000 </r>
       <r>   -10.5185     0.0000    14.0000 </r>
       <r>   -10.4347     0.0000    14.0000 </r>
       <r>   -10.3509     0.0000    14.0000 </r>
       <r>   -10.2671     0.0000    14.0000 </r>
       <r>   -10.1832     0.0000    14.0000 </r>
       <r>   -10.0994     0.0000    14.0000 </r>
       <r>   -10.0156     0.0000    14.0000 </r>
       <r>    -9.9318     0.0000    14.0000 </r>
       <r>    -9.8480     0.0000    14.0000 </r>
       <r>    -9.7642     0.0000    14.0000 </r>
       <r>    -9.6804     0.0000    14.0000 </r>
       <r>    -9.5966     0.0000    14.0000 </r>
       <r>    -9.5128     0.0000    14.0000 </r>
       <r>    -9.4289     0.0000    14.0000 </r>
       <r>    -9.3451     0.0000    14.0000 </r>
       <r>    -9.2613     0.0000    14.0000 </r>
       <r>    -9.1775     0.0000    14.0000 </r>
       <r>    -9.0937     0.0000    14.0000 </r>
       <r>    -9.0099     0.0000    14.0000 </r>
       <r>    -8.9261     0.0000    14.0000 </r>
       <r>    -8.8423     0.0000    14.0000 </r>
       <r>    -8.7585     0.0000    14.0000 </r>
       <r>    -8.6746     0.0000    14.0000 </r>
       <r>    -8.5908     0.0000    14.0000 </r>
       <r>    -8.5070     0.0000    14.0000 </r>
       <r>    -8.4232     0.0000    14.0000 </r>
       <r>    -8.3394     0.0000    14.0000 </r>
       <r>    -8.2556     0.0000    14.0000 </r>
       <r>    -8.1718     0.0000    14.0000 </r>
       <r>    -8.0880     0.0000    14.0000 </r>
       <r>    -8.0042     0.0000    14.0000 </r>
       <r>    -7.9203     0.0000    14.0000 </r>
       <r>    -7.8365     0.0000    14.0000 </r>
       <r>    -7.7527     0.0000    14.0000 </r>
       <r>    -7.6689     0.0000    14.0000 </r>
       <r>    -7.5851     0.0000    14.0000 </r>
       <r>    -7.5013     0.0000    14.0000 </r>
       <r>    -7.4175     0.0000    14.0000 </r>
       <r>    -7.3337     0.0000    14.0000 </r>
       <r>    -7.2499     0.0000    14.0000 </r>
       <r>    -7.1660     0.0000    14.0000 </r>
       <r>    -7.0822     0.0000    14.0000 </r>
       <r>    -6.9984     0.0000    14.0000 </r>
       <r>    -6.9146     0.0000    14.0000 </r>
       <r>    -6.8308     0.0000    14.0000 </r>
       <r>    -6.7470     0.0000    14.0000 </r>
       <r>    -6.6632     0.0000    14.0000 </r>
       <r>    -6.5794     0.0000    14.0000 </r>
       <r>    -6.4956     0.0000    14.0000 </r>
       <r>    -6.4117     0.0000    14.0000 </r>
       <r>    -6.3279     0.0000    14.0000 </r>
       <r>    -6.2441     0.0250    14.0021 </r>
       <r>    -6.1603     2.6054    14.2205 </r>
       <r>    -6.0765     8.1124    14.9004 </r>
       <r>    -5.9927     7.7145    15.5469 </r>
       <r>    -5.9089     5.1855    15.9815 </r>
       <r>    -5.8251     0.2202    16.0000 </r>
       <r>    -5.7413     0.0001    16.0000 </r>
       <r>    -5.6574     0.0000    16.0000 </r>
       <r>    -5.5736     0.0000    16.0000 </r>
       <r>    -5.4898     0.0000    16.0000 </r>
       <r>    -5.4060     0.0000    16.0000 </r>
       <r>    -5.3222     0.0000    16.0000 </r>
       <r>    -5.2384     0.0000    16.0000 </r>
       <r>    -5.1546     0.0000    16.0000 </r>
       <r>    -5.0708     0.0000    16.0000 </r>
       <r>    -4.9870     0.0000    16.0000 </r>
       <r>    -4.9031     0.0000    16.0000 </r>
       <r>    -4.8193     0.0000    16.0000 </r>
       <r>    -4.7355     0.0000    16.0000 </r>
       <r>    -4.6517     0.0000    16.0000 </r>
       <r>    -4.5679     0.0000    16.0000 </r>
       <r>    -4.4841     0.0000    16.0000 </r>
       <r>    -4.4003     0.0000    16.0000 </r>
       <r>    -4.3165     0.0000    16.0000 </r>
       <r>    -4.2327     0.0003    16.0000 </r>
       <r>    -4.1488     0.1878    16.0158 </r>
       <r>    -4.0650     1.8534    16.1711 </r>
       <r>    -3.9812     1.6384    16.3084 </r>
       <r>    -3.8974     1.2399    16.4123 </r>
       <r>    -3.8136     0.7518    16.4754 </r>
       <r>    -3.7298     3.4126    16.7614 </r>
       <r>    -3.6460     6.4824    17.3047 </r>
       <r>    -3.5622     4.6494    17.6943 </r>
       <r>    -3.4784     3.3503    17.9751 </r>
       <r>    -3.3945     3.5737    18.2746 </r>
       <r>    -3.3107     2.8531    18.5138 </r>
       <r>    -3.2269     4.1404    18.8608 </r>
       <r>    -3.1431     0.9692    18.9420 </r>
       <r>    -3.0593     1.2567    19.0473 </r>
       <r>    -2.9755     2.7372    19.2767 </r>
       <r>    -2.8917     3.5112    19.5710 </r>
       <r>    -2.8079     3.2351    19.8421 </r>
       <r>    -2.7241     3.5846    20.1426 </r>
       <r>    -2.6402     5.5553    20.6082 </r>
       <r>    -2.5564    10.8548    21.5179 </r>
       <r>    -2.4726     7.7597    22.1683 </r>
       <r>    -2.3888     3.6235    22.4720 </r>
       <r>    -2.3050     3.2086    22.7409 </r>
       <r>    -2.2212     3.7103    23.0518 </r>
       <r>    -2.1374     5.6325    23.5239 </r>
       <r>    -2.0536    14.2508    24.7183 </r>
       <r>    -1.9697    13.6078    25.8588 </r>
       <r>    -1.8859     1.6804    25.9996 </r>
       <r>    -1.8021     0.0048    26.0000 </r>
       <r>    -1.7183     0.0000    26.0000 </r>
       <r>    -1.6345     0.0000    26.0000 </r>
       <r>    -1.5507     0.0000    26.0000 </r>
       <r>    -1.4669     0.0000    26.0000 </r>
       <r>    -1.3831     0.0000    26.0000 </r>
       <r>    -1.2993     0.0000    26.0000 </r>
       <r>    -1.2154     0.0000    26.0000 </r>
       <r>    -1.1316     0.0000    26.0000 </r>
       <r>    -1.0478     0.0000    26.0000 </r>
       <r>    -0.9640     0.0000    26.0000 </r>
       <r>    -0.8802     0.0000    26.0000 </r>
       <r>    -0.7964     0.0000    26.0000 </r>
       <r>    -0.7126     0.0000    26.0000 </r>
       <r>    -0.6288     0.0000    26.0000 </r>
       <r>    -0.5450     0.0000    26.0000 </r>
       <r>    -0.4611     0.0000    26.0000 </r>
       <r>    -0.3773     0.0000    26.0000 </r>
       <r>    -0.2935     0.0000    26.0000 </r>
       <r>    -0.2097     0.0000    26.0000 </r>
       <r>    -0.1259     0.0000    26.0000 </r>
       <r>    -0.0421     0.0000    26.0000 </r>
       <r>     0.0417     0.0000    26.0000 </r>
       <r>     0.1255     0.0000    26.0000 </r>
       <r>     0.2093     0.0000    26.0000 </r>
       <r>     0.2932     0.0000    26.0000 </r>
       <r>     0.3770     0.0001    26.0000 </r>
       <r>     0.4608     0.1891    26.0159 </r>
       <r>     0.5446     4.4775    26.3911 </r>
       <r>     0.6284     4.0788    26.7330 </r>
       <r>     0.7122     1.7043    26.8758 </r>
       <r>     0.7960     1.2639    26.9817 </r>
       <r>     0.8798     1.2638    27.0877 </r>
       <r>     0.9636     3.3032    27.3645 </r>
       <r>     1.0475     4.9047    27.7756 </r>
       <r>     1.1313     2.5991    27.9934 </r>
       <r>     1.2151     0.0787    28.0000 </r>
       <r>     1.2989     0.0000    28.0000 </r>
       <r>     1.3827     0.0000    28.0000 </r>
       <r>     1.4665     0.0000    28.0000 </r>
       <r>     1.5503     0.0000    28.0000 </r>
       <r>     1.6341     0.0000    28.0000 </r>
       <r>     1.7179     0.0000    28.0000 </r>
       <r>     1.8018     0.0000    28.0000 </r>
       <r>     1.8856     0.0000    28.0000 </r>
       <r>     1.9694     0.0000    28.0000 </r>
       <r>     2.0532     0.0000    28.0000 </r>
       <r>     2.1370     0.0000    28.0000 </r>
       <r>     2.2208     0.0369    28.0031 </r>
       <r>     2.3046     2.3487    28.1999 </r>
       <r>     2.3884     5.1655    28.6329 </r>
       <r>     2.4722     3.1914    28.9003 </r>
       <r>     2.5561     4.7412    29.2977 </r>
       <r>     2.6399     5.4223    29.7522 </r>
       <r>     2.7237     4.1474    30.0998 </r>
       <r>     2.8075     4.7508    30.4979 </r>
       <r>     2.8913     7.7551    31.1479 </r>
       <r>     2.9751     6.1853    31.6663 </r>
       <r>     3.0589     0.8646    31.7387 </r>
       <r>     3.1427     1.0793    31.8292 </r>
       <r>     3.2265     1.5957    31.9629 </r>
       <r>     3.3104     0.4916    32.0041 </r>
       <r>     3.3942     1.7080    32.1473 </r>
       <r>     3.4780     3.2421    32.4190 </r>
       <r>     3.5618     3.0515    32.6747 </r>
       <r>     3.6456     3.5430    32.9717 </r>
       <r>     3.7294     4.7194    33.3672 </r>
[...]
        <r>  0.0512  0.0235  0.0006  0.0235  0.0007  0.0000  0.0000  0.0000  0.0000 </r>
        <r>  0.0512  0.0235  0.0006  0.0235  0.0007  0.0000  0.0000  0.0000  0.0000 </r>
        <r>  0.0012  0.0005  0.0255  0.0005  0.0000  0.0007  0.0000  0.0007  0.0000 </r>
        <r>  0.0012  0.0005  0.0255  0.0005  0.0000  0.0007  0.0000  0.0007  0.0000 </r>
       </set>
       <set comment="band 17">
        <r>  0.0000  0.0282  0.0000  0.0314  0.0000  0.0002  0.0000  0.0002  0.0000 </r>
        <r>  0.0000  0.0314  0.0000  0.0282  0.0000  0.0002  0.0000  0.0002  0.0000 </r>
        <r>  0.0000  0.0136  0.0243  0.0136  0.0000  0.0001  0.0000  0.0001  0.0005 </r>
        <r>  0.0000  0.0136  0.0243  0.0136  0.0000  0.0001  0.0000  0.0001  0.0005 </r>
        <r>  0.0000  0.0034  0.0966  0.0034  0.0000  0.0004  0.0000  0.0004  0.0001 </r>
        <r>  0.0000  0.0034  0.0966  0.0034  0.0000  0.0004  0.0000  0.0004  0.0001 </r>
       </set>
       <set comment="band 18">
        <r>  0.0000  0.0314  0.0000  0.0282  0.0000  0.0002  0.0000  0.0002  0.0000 </r>
        <r>  0.0000  0.0282  0.0000  0.0314  0.0000  0.0002  0.0000  0.0002  0.0000 </r>
        <r>  0.0000  0.0034  0.0966  0.0034  0.0000  0.0004  0.0000  0.0004  0.0001 </r>
        <r>  0.0000  0.0034  0.0966  0.0034  0.0000  0.0004  0.0000  0.0004  0.0001 </r>
        <r>  0.0000  0.0136  0.0243  0.0136  0.0000  0.0001  0.0000  0.0001  0.0005 </r>
        <r>  0.0000  0.0136  0.0243  0.0136  0.0000  0.0001  0.0000  0.0001  0.0005 </r>
       </set>
       <set comment="band 19">
        <r>  0.0127  0.0000  0.0025  0.0000  0.0002  0.0000  0.0096  0.0000  0.0000 </r>
        <r>  0.0003  0.0000  0.1002  0.0000  0.0076  0.0000  0.0002  0.0000  0.0000 </r>
        <r>  0.0002  0.0245  0.0386  0.0245  0.0003  0.0002  0.0002  0.0002  0.0000 </r>
        <r>  0.0002  0.0245  0.0386  0.0245  0.0003  0.0002  0.0002  0.0002  0.0000 </r>
        <r>  0.0001  0.0144  0.0660  0.0144  0.0002  0.0003  0.0001  0.0003  0.0000 </r>
        <r>  0.0001  0.0144  0.0660  0.0144  0.0002  0.0003  0.0001  0.0003  0.0000 </r>
       </set>
       <set comment="band 20">
        <r>  0.0003  0.0000  0.1002  0.0000  0.0076  0.0000  0.0002  0.0000  0.0000 </r>
        <r>  0.0127  0.0000  0.0025  0.0000  0.0002  0.0000  0.0096  0.0000  0.0000 </r>
        <r>  0.0001  0.0144  0.0660  0.0144  0.0002  0.0003  0.0001  0.0003  0.0000 </r>
        <r>  0.0001  0.0144  0.0660  0.0144  0.0002  0.0003  0.0001  0.0003  0.0000 </r>
        <r>  0.0002  0.0245  0.0386  0.0245  0.0003  0.0002  0.0002  0.0002  0.0000 </r>
        <r>  0.0002  0.0245  0.0386  0.0245  0.0003  0.0002  0.0002  0.0002  0.0000 </r>
       </set>
       <set comment="band 21">
        <r>  0.0000  0.0079  0.0000  0.0308  0.0000  0.0058  0.0000  0.0015  0.0000 </r>
        <r>  0.0000  0.0308  0.0000  0.0079  0.0000  0.0015  0.0000  0.0058  0.0000 </r>
        <r>  0.0029  0.0788  0.0000  0.0788  0.0001  0.0000  0.0000  0.0000  0.0000 </r>
        <r>  0.0029  0.0788  0.0000  0.0788  0.0001  0.0000  0.0000  0.0000  0.0000 </r>
        <r>  0.0010  0.0258  0.0000  0.0258  0.0000  0.0001  0.0000  0.0001  0.0000 </r>
        <r>  0.0010  0.0258  0.0000  0.0258  0.0000  0.0001  0.0000  0.0001  0.0000 </r>
       </set>
       <set comment="band 22">
        <r>  0.0000  0.0308  0.0000  0.0079  0.0000  0.0015  0.0000  0.0058  0.0000 </r>
        <r>  0.0000  0.0079  0.0000  0.0308  0.0000  0.0058  0.0000  0.0015  0.0000 </r>
        <r>  0.0010  0.0258  0.0000  0.0258  0.0000  0.0001  0.0000  0.0001  0.0000 </r>
        <r>  0.0010  0.0258  0.0000  0.0258  0.0000  0.0001  0.0000  0.0001  0.0000 </r>
        <r>  0.0029  0.0788  0.0000  0.0788  0.0001  0.0000  0.0000  0.0000  0.0000 </r>
        <r>  0.0029  0.0788  0.0000  0.0788  0.0001  0.0000  0.0000  0.0000  0.0000 </r>
       </set>
       <set comment="band 23">
        <r>  0.0000  0.0000  0.0000  0.0000  0.0000  0.0000  0.0000  0.0000  0.0016 </r>
        <r>  0.0000  0.0000  0.0000  0.0000  0.0000  0.0000  0.0000  0.0000  0.0051 </r>
        <r>  0.0000  0.0256  0.0000  0.0256  0.0000  0.0000  0.0000  0.0000  0.0000 </r>
        <r>  0.0000  0.0256  0.0000  0.0256  0.0000  0.0000  0.0000  0.0000  0.0000 </r>
        <r>  0.0000  0.0797  0.0000  0.0797  0.0000  0.0000  0.0000  0.0000  0.0001 </r>
        <r>  0.0000  0.0797  0.0000  0.0797  0.0000  0.0000  0.0000  0.0000  0.0001 </r>
       </set>
       <set comment="band 24">
        <r>  0.0000  0.0000  0.0000  0.0000  0.0000  0.0000  0.0000  0.0000  0.0051 </r>
        <r>  0.0000  0.0000  0.0000  0.0000  0.0000  0.0000  0.0000  0.0000  0.0016 </r>
        <r>  0.0000  0.0797  0.0000  0.0797  0.0000  0.0000  0.0000  0.0000  0.0001 </r>
        <r>  0.0000  0.0797  0.0000  0.0797  0.0000  0.0000  0.0000  0.0000  0.0001 </r>
        <r>  0.0000  0.0256  0.0000  0.0256  0.0000  0.0000  0.0000  0.0000  0.0000 </r>
        <r>  0.0000  0.0256  0.0000  0.0256  0.0000  0.0000  0.0000  0.0000  0.0000 </r>
       </set>
       <set comment="band 25">
        <r>  0.0000  0.0003  0.0000  0.0005  0.0000  0.0037  0.0000  0.0022  0.0000 </r>
        <r>  0.0000  0.0005  0.0000  0.0003  0.0000  0.0022  0.0000  0.0037  0.0000 </r>
        <r>  0.0000  0.0749  0.0083  0.0749  0.0000  0.0000  0.0000  0.0000  0.0001 </r>
        <r>  0.0000  0.0749  0.0083  0.0749  0.0000  0.0000  0.0000  0.0000  0.0001 </r>
        <r>  0.0000  0.0111  0.0560  0.0111  0.0000  0.0000  0.0000  0.0000  0.0000 </r>
        <r>  0.0000  0.0111  0.0560  0.0111  0.0000  0.0000  0.0000  0.0000  0.0000 </r>
       </set>
       <set comment="band 26">
        <r>  0.0000  0.0005  0.0000  0.0003  0.0000  0.0022  0.0000  0.0037  0.0000 </r>
        <r>  0.0000  0.0003  0.0000  0.0005  0.0000  0.0037  0.0000  0.0022  0.0000 </r>
        <r>  0.0000  0.0111  0.0560  0.0111  0.0000  0.0000  0.0000  0.0000  0.0000 </r>
        <r>  0.0000  0.0111  0.0560  0.0111  0.0000  0.0000  0.0000  0.0000  0.0000 </r>
        <r>  0.0000  0.0749  0.0083  0.0749  0.0000  0.0000  0.0000  0.0000  0.0001 </r>
        <r>  0.0000  0.0749  0.0083  0.0749  0.0000  0.0000  0.0000  0.0000  0.0001 </r>
       </set>
       <set comment="band 27">
        <r>  0.0949  0.0000  0.0180  0.0000  0.0015  0.0000  0.0002  0.0000  0.0000 </r>
        <r>  0.1347  0.0000  0.0127  0.0000  0.0011  0.0000  0.0003  0.0000  0.0000 </r>
        <r>  0.0039  0.0195  0.0007  0.0195  0.0005  0.0000  0.0012  0.0000  0.0000 </r>
        <r>  0.0039  0.0195  0.0007  0.0195  0.0005  0.0000  0.0012  0.0000  0.0000 </r>
        <r>  0.0000  0.0002  0.0879  0.0002  0.0000  0.0042  0.0000  0.0042  0.0000 </r>
        <r>  0.0000  0.0002  0.0879  0.0002  0.0000  0.0042  0.0000  0.0042  0.0000 </r>
       </set>
       <set comment="band 28">
        <r>  0.1347  0.0000  0.0127  0.0000  0.0011  0.0000  0.0003  0.0000  0.0000 </r>
        <r>  0.0949  0.0000  0.0180  0.0000  0.0015  0.0000  0.0002  0.0000  0.0000 </r>
        <r>  0.0000  0.0002  0.0879  0.0002  0.0000  0.0042  0.0000  0.0042  0.0000 </r>
        <r>  0.0000  0.0002  0.0879  0.0002  0.0000  0.0042  0.0000  0.0042  0.0000 </r>
        <r>  0.0039  0.0195  0.0007  0.0195  0.0005  0.0000  0.0012  0.0000  0.0000 </r>
        <r>  0.0039  0.0195  0.0007  0.0195  0.0005  0.0000  0.0012  0.0000  0.0000 </r>
       </set>
       <set comment="band 29">
        <r>  0.0026  0.0000  0.0348  0.0000  0.0016  0.0000  0.0023  0.0000  0.0000 </r>
        <r>  0.0020  0.0000  0.0459  0.0000  0.0022  0.0000  0.0017  0.0000  0.0000 </r>
        <r>  0.0226  0.0120  0.0001  0.0120  0.0029  0.0000  0.0047  0.0000  0.0000 </r>
        <r>  0.0226  0.0120  0.0001  0.0120  0.0029  0.0000  0.0047  0.0000  0.0000 </r>
        <r>  0.0003  0.0001  0.0088  0.0001  0.0000  0.0011  0.0001  0.0011  0.0000 </r>
        <r>  0.0003  0.0001  0.0088  0.0001  0.0000  0.0011  0.0001  0.0011  0.0000 </r>
       </set>
       <set comment="band 30">
        <r>  0.0020  0.0000  0.0459  0.0000  0.0022  0.0000  0.0017  0.0000  0.0000 </r>
        <r>  0.0027  0.0000  0.0348  0.0000  0.0016  0.0000  0.0023  0.0000  0.0000 </r>
        <r>  0.0003  0.0001  0.0088  0.0001  0.0000  0.0011  0.0001  0.0011  0.0000 </r>
        <r>  0.0003  0.0001  0.0088  0.0001  0.0000  0.0011  0.0001  0.0011  0.0000 </r>
        <r>  0.0226  0.0120  0.0001  0.0120  0.0029  0.0000  0.0047  0.0000  0.0000 </r>
        <r>  0.0226  0.0120  0.0001  0.0120  0.0029  0.0000  0.0047  0.0000  0.0000 </r>
       </set>
       <set comment="band 31">
        <r>  0.0000  0.0204  0.0000  0.0854  0.0000  0.0063  0.0000  0.0015  0.0000 </r>
        <r>  0.0000  0.0854  0.0000  0.0204  0.0000  0.0015  0.0000  0.0063  0.0000 </r>
        <r>  0.0203  0.0074  0.0000  0.0074  0.0001  0.0010  0.0062  0.0010  0.0000 </r>
        <r>  0.0203  0.0074  0.0000  0.0074  0.0001  0.0010  0.0062  0.0010  0.0000 </r>
        <r>  0.0063  0.0023  0.0000  0.0023  0.0000  0.0031  0.0019  0.0031  0.0000 </r>
        <r>  0.0063  0.0023  0.0000  0.0023  0.0000  0.0031  0.0019  0.0031  0.0000 </r>
       </set>
       <set comment="band 32">
        <r>  0.0000  0.0854  0.0000  0.0204  0.0000  0.0015  0.0000  0.0063  0.0000 </r>
        <r>  0.0000  0.0204  0.0000  0.0854  0.0000  0.0063  0.0000  0.0015  0.0000 </r>
        <r>  0.0063  0.0023  0.0000  0.0023  0.0000  0.0031  0.0019  0.0031  0.0000 </r>
        <r>  0.0063  0.0023  0.0000  0.0023  0.0000  0.0031  0.0019  0.0031  0.0000 </r>
        <r>  0.0203  0.0074  0.0000  0.0074  0.0001  0.0010  0.0062  0.0010  0.0000 </r>
        <r>  0.0203  0.0074  0.0000  0.0074  0.0001  0.0010  0.0062  0.0010  0.0000 </r>
       </set>
       <set comment="band 33">
        <r>  0.0000  0.0529  0.0000  0.0313  0.0000  0.0030  0.0000  0.0051  0.0000 </r>
        <r>  0.0000  0.0313  0.0000  0.0529  0.0000  0.0051  0.0000  0.0030  0.0000 </r>
        <r>  0.0000  0.0016  0.0479  0.0016  0.0000  0.0040  0.0000  0.0040  0.0017 </r>
        <r>  0.0000  0.0016  0.0479  0.0016  0.0000  0.0040  0.0000  0.0040  0.0017 </r>
        <r>  0.0000  0.0126  0.0061  0.0126  0.0000  0.0005  0.0000  0.0005  0.0132 </r>
        <r>  0.0000  0.0126  0.0061  0.0126  0.0000  0.0005  0.0000  0.0005  0.0132 </r>
       </set>
       <set comment="band 34">
        <r>  0.0000  0.0313  0.0000  0.0529  0.0000  0.0051  0.0000  0.0030  0.0000 </r>
        <r>  0.0000  0.0529  0.0000  0.0313  0.0000  0.0030  0.0000  0.0051  0.0000 </r>
        <r>  0.0000  0.0126  0.0061  0.0126  0.0000  0.0005  0.0000  0.0005  0.0132 </r>
        <r>  0.0000  0.0126  0.0061  0.0126  0.0000  0.0005  0.0000  0.0005  0.0132 </r>
        <r>  0.0000  0.0016  0.0479  0.0016  0.0000  0.0040  0.0000  0.0040  0.0017 </r>
        <r>  0.0000  0.0016  0.0479  0.0016  0.0000  0.0040  0.0000  0.0040  0.0017 </r>
       </set>
       <set comment="band 35">
        <r>  0.0014  0.0000  0.0144  0.0000  0.0019  0.0000  0.0093  0.0000  0.0000 </r>
        <r>  0.0004  0.0000  0.0461  0.0000  0.0060  0.0000  0.0029  0.0000  0.0000 </r>
        <r>  0.0003  0.0030  0.0175  0.0030  0.0043  0.0002  0.0007  0.0002  0.0000 </r>
        <r>  0.0003  0.0030  0.0175  0.0030  0.0043  0.0002  0.0007  0.0002  0.0000 </r>
        <r>  0.0012  0.0120  0.0044  0.0120  0.0170  0.0000  0.0027  0.0000  0.0000 </r>
        <r>  0.0012  0.0120  0.0044  0.0120  0.0170  0.0000  0.0027  0.0000  0.0000 </r>
       </set>
       <set comment="band 36">
        <r>  0.0004  0.0000  0.0461  0.0000  0.0060  0.0000  0.0029  0.0000  0.0000 </r>
        <r>  0.0014  0.0000  0.0144  0.0000  0.0019  0.0000  0.0093  0.0000  0.0000 </r>
        <r>  0.0012  0.0120  0.0044  0.0120  0.0170  0.0000  0.0027  0.0000  0.0000 </r>
        <r>  0.0012  0.0120  0.0044  0.0120  0.0170  0.0000  0.0027  0.0000  0.0000 </r>
        <r>  0.0003  0.0030  0.0175  0.0030  0.0043  0.0002  0.0007  0.0002  0.0000 </r>
        <r>  0.0003  0.0030  0.0175  0.0030  0.0043  0.0002  0.0007  0.0002  0.0000 </r>
       </set>
       <set comment="band 37">
        <r>  0.0000  0.0138  0.0000  0.0167  0.0000  0.0030  0.0000  0.0025  0.0000 </r>
        <r>  0.0000  0.0167  0.0000  0.0138  0.0000  0.0025  0.0000  0.0030  0.0000 </r>
        <r>  0.0000  0.0001  0.0000  0.0001  0.0000  0.0000  0.0000  0.0000  0.0024 </r>
        <r>  0.0000  0.0001  0.0000  0.0001  0.0000  0.0000  0.0000  0.0000  0.0024 </r>
        <r>  0.0000  0.0000  0.0019  0.0000  0.0000  0.0098  0.0000  0.0098  0.0000 </r>
        <r>  0.0000  0.0000  0.0019  0.0000  0.0000  0.0098  0.0000  0.0098  0.0000 </r>
       </set>
       <set comment="band 38">
        <r>  0.0000  0.0167  0.0000  0.0138  0.0000  0.0025  0.0000  0.0030  0.0000 </r>
        <r>  0.0000  0.0138  0.0000  0.0167  0.0000  0.0030  0.0000  0.0025  0.0000 </r>
        <r>  0.0000  0.0000  0.0019  0.0000  0.0000  0.0098  0.0000  0.0098  0.0000 </r>
        <r>  0.0000  0.0000  0.0019  0.0000  0.0000  0.0098  0.0000  0.0098  0.0000 </r>
        <r>  0.0000  0.0001  0.0000  0.0001  0.0000  0.0000  0.0000  0.0000  0.0024 </r>
        <r>  0.0000  0.0001  0.0000  0.0001  0.0000  0.0000  0.0000  0.0000  0.0024 </r>
       </set>
       <set comment="band 39">
        <r>  0.0000  0.0000  0.0000  0.0000  0.0000  0.0000  0.0000  0.0000  0.0007 </r>
        <r>  0.0000  0.0000  0.0000  0.0000  0.0000  0.0000  0.0000  0.0000  0.0008 </r>
        <r>  0.0000  0.0101  0.0000  0.0101  0.0000  0.0038  0.0000  0.0038  0.0011 </r>
        <r>  0.0000  0.0101  0.0000  0.0101  0.0000  0.0038  0.0000  0.0038  0.0011 </r>
        <r>  0.0000  0.0127  0.0000  0.0127  0.0000  0.0030  0.0000  0.0030  0.0014 </r>
        <r>  0.0000  0.0127  0.0000  0.0127  0.0000  0.0030  0.0000  0.0030  0.0014 </r>
       </set>
       <set comment="band 40">
        <r>  0.0000  0.0000  0.0000  0.0000  0.0000  0.0000  0.0000  0.0000  0.0008 </r>
        <r>  0.0000  0.0000  0.0000  0.0000  0.0000  0.0000  0.0000  0.0000  0.0007 </r>
        <r>  0.0000  0.0127  0.0000  0.0127  0.0000  0.0030  0.0000  0.0030  0.0014 </r>
        <r>  0.0000  0.0127  0.0000  0.0127  0.0000  0.0030  0.0000  0.0030  0.0014 </r>
        <r>  0.0000  0.0101  0.0000  0.0101  0.0000  0.0038  0.0000  0.0038  0.0011 </r>
        <r>  0.0000  0.0101  0.0000  0.0101  0.0000  0.0038  0.0000  0.0038  0.0011 </r>
       </set>
       <set comment="band 41">
        <r>  0.0001  0.0000  0.0052  0.0000  0.0088  0.0000  0.0000  0.0000  0.0000 </r>
        <r>  0.0001  0.0000  0.0039  0.0000  0.0067  0.0000  0.0000  0.0000  0.0000 </r>
        <r>  0.0000  0.0001  0.0004  0.0001  0.0000  0.0002  0.0000  0.0002  0.0000 </r>
        <r>  0.0000  0.0001  0.0004  0.0001  0.0000  0.0002  0.0000  0.0002  0.0000 </r>
        <r>  0.0011  0.0180  0.0000  0.0180  0.0031  0.0000  0.0060  0.0000  0.0000 </r>
        <r>  0.0011  0.0180  0.0000  0.0180  0.0031  0.0000  0.0060  0.0000  0.0000 </r>
       </set>
       <set comment="band 42">
        <r>  0.0001  0.0000  0.0039  0.0000  0.0067  0.0000  0.0000  0.0000  0.0000 </r>
        <r>  0.0001  0.0000  0.0052  0.0000  0.0088  0.0000  0.0000  0.0000  0.0000 </r>
        <r>  0.0011  0.0180  0.0000  0.0180  0.0031  0.0000  0.0060  0.0000  0.0000 </r>
        <r>  0.0011  0.0180  0.0000  0.0180  0.0031  0.0000  0.0060  0.0000  0.0000 </r>
        <r>  0.0000  0.0001  0.0004  0.0001  0.0000  0.0002  0.0000  0.0002  0.0000 </r>
        <r>  0.0000  0.0001  0.0004  0.0001  0.0000  0.0002  0.0000  0.0002  0.0000 </r>
       </set>
       <set comment="band 43">
        <r>  0.0000  0.0079  0.0000  0.0006  0.0000  0.0002  0.0000  0.0023  0.0000 </r>
        <r>  0.0000  0.0006  0.0000  0.0079  0.0000  0.0023  0.0000  0.0002  0.0000 </r>
        <r>  0.0003  0.0017  0.0000  0.0017  0.0053  0.0038  0.0001  0.0038  0.0000 </r>
        <r>  0.0003  0.0017  0.0000  0.0017  0.0053  0.0038  0.0001  0.0038  0.0000 </r>
        <r>  0.0009  0.0045  0.0000  0.0045  0.0140  0.0014  0.0002  0.0014  0.0000 </r>
        <r>  0.0009  0.0045  0.0000  0.0045  0.0140  0.0014  0.0002  0.0014  0.0000 </r>
       </set>
       <set comment="band 44">
        <r>  0.0000  0.0006  0.0000  0.0079  0.0000  0.0023  0.0000  0.0002  0.0000 </r>
        <r>  0.0000  0.0079  0.0000  0.0006  0.0000  0.0002  0.0000  0.0023  0.0000 </r>
        <r>  0.0009  0.0045  0.0000  0.0045  0.0140  0.0014  0.0002  0.0014  0.0000 </r>
        <r>  0.0009  0.0045  0.0000  0.0045  0.0140  0.0014  0.0002  0.0014  0.0000 </r>
        <r>  0.0003  0.0017  0.0000  0.0017  0.0053  0.0038  0.0001  0.0038  0.0000 </r>
        <r>  0.0003  0.0017  0.0000  0.0017  0.0053  0.0038  0.0001  0.0038  0.0000 </r>
       </set>
       <set comment="band 45">
        <r>  0.0000  0.0000  0.0000  0.0000  0.0000  0.0000  0.0000  0.0000  0.0110 </r>
        <r>  0.0000  0.0000  0.0000  0.0000  0.0000  0.0000  0.0000  0.0000  0.0404 </r>
        <r>  0.0000  0.0001  0.0000  0.0001  0.0000  0.0099  0.0000  0.0099  0.0079 </r>
        <r>  0.0000  0.0001  0.0000  0.0001  0.0000  0.0099  0.0000  0.0099  0.0079 </r>
        <r>  0.0000  0.0003  0.0000  0.0003  0.0000  0.0027  0.0000  0.0027  0.0293 </r>
        <r>  0.0000  0.0003  0.0000  0.0003  0.0000  0.0027  0.0000  0.0027  0.0293 </r>
       </set>
       <set comment="band 46">
        <r>  0.0000  0.0000  0.0000  0.0000  0.0000  0.0000  0.0000  0.0000  0.0404 </r>
        <r>  0.0000  0.0000  0.0000  0.0000  0.0000  0.0000  0.0000  0.0000  0.0110 </r>
        <r>  0.0000  0.0003  0.0000  0.0003  0.0000  0.0026  0.0000  0.0026  0.0293 </r>
        <r>  0.0000  0.0003  0.0000  0.0003  0.0000  0.0027  0.0000  0.0027  0.0293 </r>
        <r>  0.0000  0.0001  0.0000  0.0001  0.0000  0.0099  0.0000  0.0099  0.0079 </r>
        <r>  0.0000  0.0001  0.0000  0.0001  0.0000  0.0099  0.0000  0.0099  0.0079 </r>
       </set>
       <set comment="band 47">
        <r>  0.0014  0.0000  0.0475  0.0000  0.0053  0.0000  0.0001  0.0000  0.0000 </r>
        <r>  0.0021  0.0000  0.0322  0.0000  0.0036  0.0000  0.0001  0.0000  0.0000 </r>
        <r>  0.0002  0.0000  0.0006  0.0000  0.0001  0.0044  0.0004  0.0044  0.0000 </r>
        <r>  0.0002  0.0000  0.0006  0.0000  0.0001  0.0044  0.0002  0.0044  0.0000 </r>
        <r>  0.0102  0.0012  0.0000  0.0012  0.0035  0.0001  0.0156  0.0001  0.0000 </r>
        <r>  0.0098  0.0013  0.0000  0.0013  0.0037  0.0001  0.0163  0.0001  0.0000 </r>
       </set>
       <set comment="band 48">
        <r>  0.0020  0.0001  0.0311  0.0002  0.0035  0.0001  0.0001  0.0000  0.0000 </r>
        <r>  0.0014  0.0002  0.0459  0.0001  0.0051  0.0000  0.0001  0.0001  0.0000 </r>
        <r>  0.0119  0.0009  0.0000  0.0009  0.0031  0.0001  0.0130  0.0000  0.0000 </r>
        <r>  0.0082  0.0018  0.0000  0.0018  0.0041  0.0000  0.0197  0.0001  0.0000 </r>
        <r>  0.0006  0.0000  0.0005  0.0000  0.0000  0.0047  0.0001  0.0039  0.0000 </r>
        <r>  0.0000  0.0001  0.0005  0.0001  0.0002  0.0039  0.0011  0.0047  0.0000 </r>
       </set>
      </set>
     </set>
    </set>
   </array>
  </projected>
 </calculation>
 <structure name="finalpos" >
  <crystal>
   <varray name="basis" >
    <v>       8.54774287      -0.00000000       0.00000000 </v>
    <v>       0.00000000       8.54774287       0.00000000 </v>
    <v>       0.00000000       0.00000000       7.12734328 </v>
   </varray>
   <i name="volume">    520.75155532 </i>
   <varray name="rec_basis" >
    <v>       0.11698995       0.00000000       0.00000000 </v>
    <v>       0.00000000       0.11698995       0.00000000 </v>
    <v>       0.00000000       0.00000000       0.14030473 </v>
   </varray>
  </crystal>
  <varray name="positions" >
   <v>       0.50000000       0.50000000       0.25000000 </v>
   <v>       0.50000000       0.50000000       0.75000000 </v>
   <v>       0.68110312       0.68110311       0.00000000 </v>
   <v>       0.31889689       0.31889689       0.00000000 </v>
   <v>       0.31889689       0.68110311       0.50000000 </v>
   <v>       0.68110312       0.31889689       0.50000000 </v>
  </varray>
 </structure>
</modeling>
