<?xml version="1.0" encoding="ISO-8859-1"?>
<modeling>
 <generator>
  <i name="program" type="string">vasp </i>
  <i name="version" type="string">5.4.4.18Apr17-6-g9f103f2a35  </i>
  <i name="subversion" type="string">(build May 25 2018 14:11:39) complex            parallel </i>
  <i name="platform" type="string">LinuxIFC </i>
  <i name="date" type="string">2018 11 08 </i>
  <i name="time" type="string">16:10:16 </i>
 </generator>
 <incar>
  <i type="string" name="SYSTEM"> InTe</i>
  <i type="string" name="PREC">accurate</i>
  <i type="string" name="ALGO"> Fast</i>
  <i type="logical" name="ADDGRID"> T  </i>
  <i type="int" name="ISPIN">     2</i>
  <i type="int" name="ICHARG">    11</i>
  <i type="int" name="IBRION">    -1</i>
  <i name="EDIFF">      0.00001000</i>
  <i name="ENCUT">    520.00000000</i>
  <i type="logical" name="LREAL"> F  </i>
  <i type="int" name="ISMEAR">     0</i>
  <i name="SIGMA">      0.05000000</i>
  <i type="int" name="NWRITE">     1</i>
  <i type="logical" name="LWAVE"> F  </i>
  <i type="logical" name="LCHARG"> F  </i>
  <v type="int" name="KPOINT_BSE">    -1     0     0     0</v>
 </incar>
 <structure name="primitive_cell" >
  <crystal>
   <varray name="basis" >
    <v>       8.54774287       0.00000000       0.00000000 </v>
    <v>       0.00000000       8.54774287       0.00000000 </v>
    <v>       0.00000000       0.00000000       7.12734328 </v>
   </varray>
   <i name="volume">    520.75155532 </i>
   <varray name="rec_basis" >
    <v>       0.11698995       0.00000000       0.00000000 </v>
    <v>       0.00000000       0.11698995       0.00000000 </v>
    <v>       0.00000000       0.00000000       0.14030473 </v>
   </varray>
  </crystal>
  <varray name="positions" >
   <v>      -0.50000000      -0.50000000       0.25000000 </v>
   <v>       0.31889689       0.31889689       0.00000000 </v>
   <v>       0.31889689      -0.31889689      -0.50000000 </v>
   <v>      -0.31889688      -0.31889689       0.00000000 </v>
   <v>      -0.31889688       0.31889689      -0.50000000 </v>
   <v>      -0.50000000      -0.50000000      -0.25000000 </v>
  </varray>
 </structure>
 <varray name="primitive_index" >
  <v type="int" >        1 </v>
  <v type="int" >        4 </v>
  <v type="int" >        5 </v>
  <v type="int" >        3 </v>
  <v type="int" >        6 </v>
  <v type="int" >        2 </v>
 </varray>
 <kpoints>
  <generation param="listgenerated">
   <i name="divisions" type="int">      16 </i>
   <v>       0.00000000       0.00000000       0.00000000 </v>
   <v>       0.00000000       0.50000000       0.00000000 </v>
   <v>       0.50000000       0.50000000       0.00000000 </v>
   <v>       0.00000000       0.00000000       0.00000000 </v>
   <v>       0.00000000       0.00000000       0.50000000 </v>
   <v>       0.00000000       0.50000000       0.50000000 </v>
   <v>       0.50000000       0.50000000       0.50000000 </v>
   <v>       0.00000000       0.50000000       0.00000000 </v>
   <v>       0.50000000       0.50000000       0.00000000 </v>
   <v>       0.50000000       0.50000000       0.50000000 </v>
  </generation>
  <varray name="kpointlist" >
   <v>       0.00000000       0.00000000       0.00000000 </v>
   <v>       0.00000000       0.03333333       0.00000000 </v>
   <v>       0.00000000       0.06666667       0.00000000 </v>
   <v>       0.00000000       0.10000000       0.00000000 </v>
   <v>       0.00000000       0.13333333       0.00000000 </v>
   <v>       0.00000000       0.16666667       0.00000000 </v>
   <v>       0.00000000       0.20000000       0.00000000 </v>
   <v>       0.00000000       0.23333333       0.00000000 </v>
   <v>       0.00000000       0.26666667       0.00000000 </v>
   <v>       0.00000000       0.30000000       0.00000000 </v>
   <v>       0.00000000       0.33333333       0.00000000 </v>
   <v>       0.00000000       0.36666667       0.00000000 </v>
   <v>       0.00000000       0.40000000       0.00000000 </v>
   <v>       0.00000000       0.43333333       0.00000000 </v>
   <v>       0.00000000       0.46666667       0.00000000 </v>
   <v>       0.00000000       0.50000000       0.00000000 </v>
   <v>       0.00000000       0.50000000       0.00000000 </v>
   <v>       0.03333333       0.50000000       0.00000000 </v>
   <v>       0.06666667       0.50000000       0.00000000 </v>
   <v>       0.10000000       0.50000000       0.00000000 </v>
   <v>       0.13333333       0.50000000       0.00000000 </v>
   <v>       0.16666667       0.50000000       0.00000000 </v>
   <v>       0.20000000       0.50000000       0.00000000 </v>
   <v>       0.23333333       0.50000000       0.00000000 </v>
   <v>       0.26666667       0.50000000       0.00000000 </v>
   <v>       0.30000000       0.50000000       0.00000000 </v>
   <v>       0.33333333       0.50000000       0.00000000 </v>
   <v>       0.36666667       0.50000000       0.00000000 </v>
   <v>       0.40000000       0.50000000       0.00000000 </v>
   <v>       0.43333333       0.50000000       0.00000000 </v>
   <v>       0.46666667       0.50000000       0.00000000 </v>
   <v>       0.50000000       0.50000000       0.00000000 </v>
   <v>       0.50000000       0.50000000       0.00000000 </v>
   <v>       0.46666667       0.46666667       0.00000000 </v>
   <v>       0.43333333       0.43333333       0.00000000 </v>
   <v>       0.40000000       0.40000000       0.00000000 </v>
   <v>       0.36666667       0.36666667       0.00000000 </v>
   <v>       0.33333333       0.33333333       0.00000000 </v>
   <v>       0.30000000       0.30000000       0.00000000 </v>
   <v>       0.26666667       0.26666667       0.00000000 </v>
   <v>       0.23333333       0.23333333       0.00000000 </v>
   <v>       0.20000000       0.20000000       0.00000000 </v>
   <v>       0.16666667       0.16666667       0.00000000 </v>
   <v>       0.13333333       0.13333333       0.00000000 </v>
   <v>       0.10000000       0.10000000       0.00000000 </v>
   <v>       0.06666667       0.06666667       0.00000000 </v>
   <v>       0.03333333       0.03333333       0.00000000 </v>
   <v>       0.00000000       0.00000000       0.00000000 </v>
   <v>       0.00000000       0.00000000       0.00000000 </v>
   <v>       0.00000000       0.00000000       0.03333333 </v>
   <v>       0.00000000       0.00000000       0.06666667 </v>
   <v>       0.00000000       0.00000000       0.10000000 </v>
   <v>       0.00000000       0.00000000       0.13333333 </v>
   <v>       0.00000000       0.00000000       0.16666667 </v>
   <v>       0.00000000       0.00000000       0.20000000 </v>
   <v>       0.00000000       0.00000000       0.23333333 </v>
   <v>       0.00000000       0.00000000       0.26666667 </v>
   <v>       0.00000000       0.00000000       0.30000000 </v>
   <v>       0.00000000       0.00000000       0.33333333 </v>
   <v>       0.00000000       0.00000000       0.36666667 </v>
   <v>       0.00000000       0.00000000       0.40000000 </v>
   <v>       0.00000000       0.00000000       0.43333333 </v>
   <v>       0.00000000       0.00000000       0.46666667 </v>
   <v>       0.00000000       0.00000000       0.50000000 </v>
   <v>       0.00000000       0.00000000       0.50000000 </v>
   <v>       0.00000000       0.03333333       0.50000000 </v>
   <v>       0.00000000       0.06666667       0.50000000 </v>
   <v>       0.00000000       0.10000000       0.50000000 </v>
   <v>       0.00000000       0.13333333       0.50000000 </v>
   <v>       0.00000000       0.16666667       0.50000000 </v>
   <v>       0.00000000       0.20000000       0.50000000 </v>
   <v>       0.00000000       0.23333333       0.50000000 </v>
   <v>       0.00000000       0.26666667       0.50000000 </v>
   <v>       0.00000000       0.30000000       0.50000000 </v>
   <v>       0.00000000       0.33333333       0.50000000 </v>
   <v>       0.00000000       0.36666667       0.50000000 </v>
   <v>       0.00000000       0.40000000       0.50000000 </v>
   <v>       0.00000000       0.43333333       0.50000000 </v>
   <v>       0.00000000       0.46666667       0.50000000 </v>
   <v>       0.00000000       0.50000000       0.50000000 </v>
   <v>       0.00000000       0.50000000       0.50000000 </v>
   <v>       0.03333333       0.50000000       0.50000000 </v>
   <v>       0.06666667       0.50000000       0.50000000 </v>
   <v>       0.10000000       0.50000000       0.50000000 </v>
   <v>       0.13333333       0.50000000       0.50000000 </v>
   <v>       0.16666667       0.50000000       0.50000000 </v>
   <v>       0.20000000       0.50000000       0.50000000 </v>
   <v>       0.23333333       0.50000000       0.50000000 </v>
   <v>       0.26666667       0.50000000       0.50000000 </v>
   <v>       0.30000000       0.50000000       0.50000000 </v>
   <v>       0.33333333       0.50000000       0.50000000 </v>
   <v>       0.36666667       0.50000000       0.50000000 </v>
   <v>       0.40000000       0.50000000       0.50000000 </v>
   <v>       0.43333333       0.50000000       0.50000000 </v>
   <v>       0.46666667       0.50000000       0.50000000 </v>
   <v>       0.50000000       0.50000000       0.50000000 </v>
   <v>       0.50000000       0.50000000       0.50000000 </v>
   <v>       0.46666667       0.46666667       0.50000000 </v>
   <v>       0.43333333       0.43333333       0.50000000 </v>
   <v>       0.40000000       0.40000000       0.50000000 </v>
   <v>       0.36666667       0.36666667       0.50000000 </v>
   <v>       0.33333333       0.33333333       0.50000000 </v>
   <v>       0.30000000       0.30000000       0.50000000 </v>
   <v>       0.26666667       0.26666667       0.50000000 </v>
   <v>       0.23333333       0.23333333       0.50000000 </v>
   <v>       0.20000000       0.20000000       0.50000000 </v>
   <v>       0.16666667       0.16666667       0.50000000 </v>
   <v>       0.13333333       0.13333333       0.50000000 </v>
   <v>       0.10000000       0.10000000       0.50000000 </v>
   <v>       0.06666667       0.06666667       0.50000000 </v>
   <v>       0.03333333       0.03333333       0.50000000 </v>
   <v>       0.00000000       0.00000000       0.50000000 </v>
   <v>       0.00000000       0.50000000       0.00000000 </v>
   <v>       0.00000000       0.50000000       0.03333333 </v>
   <v>       0.00000000       0.50000000       0.06666667 </v>
   <v>       0.00000000       0.50000000       0.10000000 </v>
   <v>       0.00000000       0.50000000       0.13333333 </v>
   <v>       0.00000000       0.50000000       0.16666667 </v>
   <v>       0.00000000       0.50000000       0.20000000 </v>
   <v>       0.00000000       0.50000000       0.23333333 </v>
   <v>       0.00000000       0.50000000       0.26666667 </v>
   <v>       0.00000000       0.50000000       0.30000000 </v>
   <v>       0.00000000       0.50000000       0.33333333 </v>
   <v>       0.00000000       0.50000000       0.36666667 </v>
   <v>       0.00000000       0.50000000       0.40000000 </v>
   <v>       0.00000000       0.50000000       0.43333333 </v>
   <v>       0.00000000       0.50000000       0.46666667 </v>
   <v>       0.00000000       0.50000000       0.50000000 </v>
   <v>       0.50000000       0.50000000       0.00000000 </v>
   <v>       0.50000000       0.50000000       0.03333333 </v>
   <v>       0.50000000       0.50000000       0.06666667 </v>
   <v>       0.50000000       0.50000000       0.10000000 </v>
   <v>       0.50000000       0.50000000       0.13333333 </v>
   <v>       0.50000000       0.50000000       0.16666667 </v>
   <v>       0.50000000       0.50000000       0.20000000 </v>
   <v>       0.50000000       0.50000000       0.23333333 </v>
   <v>       0.50000000       0.50000000       0.26666667 </v>
   <v>       0.50000000       0.50000000       0.30000000 </v>
   <v>       0.50000000       0.50000000       0.33333333 </v>
   <v>       0.50000000       0.50000000       0.36666667 </v>
   <v>       0.50000000       0.50000000       0.40000000 </v>
   <v>       0.50000000       0.50000000       0.43333333 </v>
   <v>       0.50000000       0.50000000       0.46666667 </v>
   <v>       0.50000000       0.50000000       0.50000000 </v>
  </varray>
  <varray name="weights" >
   <v>       0.00694444 </v>
   <v>       0.00694444 </v>
   <v>       0.00694444 </v>
   <v>       0.00694444 </v>
   <v>       0.00694444 </v>
   <v>       0.00694444 </v>
   <v>       0.00694444 </v>
   <v>       0.00694444 </v>
   <v>       0.00694444 </v>
   <v>       0.00694444 </v>
   <v>       0.00694444 </v>
   <v>       0.00694444 </v>
   <v>       0.00694444 </v>
   <v>       0.00694444 </v>
   <v>       0.00694444 </v>
   <v>       0.00694444 </v>
   <v>       0.00694444 </v>
   <v>       0.00694444 </v>
   <v>       0.00694444 </v>
   <v>       0.00694444 </v>
   <v>       0.00694444 </v>
   <v>       0.00694444 </v>
   <v>       0.00694444 </v>
   <v>       0.00694444 </v>
   <v>       0.00694444 </v>
   <v>       0.00694444 </v>
   <v>       0.00694444 </v>
   <v>       0.00694444 </v>
   <v>       0.00694444 </v>
   <v>       0.00694444 </v>
   <v>       0.00694444 </v>
   <v>       0.00694444 </v>
   <v>       0.00694444 </v>
   <v>       0.00694444 </v>
   <v>       0.00694444 </v>
   <v>       0.00694444 </v>
   <v>       0.00694444 </v>
   <v>       0.00694444 </v>
   <v>       0.00694444 </v>
   <v>       0.00694444 </v>
   <v>       0.00694444 </v>
   <v>       0.00694444 </v>
   <v>       0.00694444 </v>
   <v>       0.00694444 </v>
   <v>       0.00694444 </v>
   <v>       0.00694444 </v>
   <v>       0.00694444 </v>
   <v>       0.00694444 </v>
   <v>       0.00694444 </v>
   <v>       0.00694444 </v>
   <v>       0.00694444 </v>
   <v>       0.00694444 </v>
   <v>       0.00694444 </v>
   <v>       0.00694444 </v>
   <v>       0.00694444 </v>
   <v>       0.00694444 </v>
   <v>       0.00694444 </v>
   <v>       0.00694444 </v>
   <v>       0.00694444 </v>
   <v>       0.00694444 </v>
   <v>       0.00694444 </v>
   <v>       0.00694444 </v>
   <v>       0.00694444 </v>
   <v>       0.00694444 </v>
   <v>       0.00694444 </v>
   <v>       0.00694444 </v>
   <v>       0.00694444 </v>
   <v>       0.00694444 </v>
   <v>       0.00694444 </v>
   <v>       0.00694444 </v>
   <v>       0.00694444 </v>
   <v>       0.00694444 </v>
   <v>       0.00694444 </v>
   <v>       0.00694444 </v>
   <v>       0.00694444 </v>
   <v>       0.00694444 </v>
   <v>       0.00694444 </v>
   <v>       0.00694444 </v>
   <v>       0.00694444 </v>
   <v>       0.00694444 </v>
   <v>       0.00694444 </v>
   <v>       0.00694444 </v>
   <v>       0.00694444 </v>
   <v>       0.00694444 </v>
   <v>       0.00694444 </v>
   <v>       0.00694444 </v>
   <v>       0.00694444 </v>
   <v>       0.00694444 </v>
   <v>       0.00694444 </v>
   <v>       0.00694444 </v>
   <v>       0.00694444 </v>
   <v>       0.00694444 </v>
   <v>       0.00694444 </v>
   <v>       0.00694444 </v>
   <v>       0.00694444 </v>
   <v>       0.00694444 </v>
   <v>       0.00694444 </v>
   <v>       0.00694444 </v>
   <v>       0.00694444 </v>
   <v>       0.00694444 </v>
   <v>       0.00694444 </v>
   <v>       0.00694444 </v>
   <v>       0.00694444 </v>
   <v>       0.00694444 </v>
   <v>       0.00694444 </v>
   <v>       0.00694444 </v>
   <v>       0.00694444 </v>
   <v>       0.00694444 </v>
   <v>       0.00694444 </v>
   <v>       0.00694444 </v>
   <v>       0.00694444 </v>
   <v>       0.00694444 </v>
   <v>       0.00694444 </v>
   <v>       0.00694444 </v>
   <v>       0.00694444 </v>
   <v>       0.00694444 </v>
   <v>       0.00694444 </v>
   <v>       0.00694444 </v>
   <v>       0.00694444 </v>
   <v>       0.00694444 </v>
   <v>       0.00694444 </v>
   <v>       0.00694444 </v>
   <v>       0.00694444 </v>
   <v>       0.00694444 </v>
   <v>       0.00694444 </v>
   <v>       0.00694444 </v>
   <v>       0.00694444 </v>
   <v>       0.00694444 </v>
   <v>       0.00694444 </v>
   <v>       0.00694444 </v>
   <v>       0.00694444 </v>
   <v>       0.00694444 </v>
   <v>       0.00694444 </v>
   <v>       0.00694444 </v>
   <v>       0.00694444 </v>
   <v>       0.00694444 </v>
   <v>       0.00694444 </v>
   <v>       0.00694444 </v>
   <v>       0.00694444 </v>
   <v>       0.00694444 </v>
   <v>       0.00694444 </v>
   <v>       0.00694444 </v>
   <v>       0.00694444 </v>
   <v>       0.00694444 </v>
  </varray>
 </kpoints>
 <parameters>
  <separator name="general" >
   <i type="string" name="SYSTEM">InTe</i>
   <i type="logical" name="LCOMPAT"> F  </i>
  </separator>
  <separator name="electronic" >
   <i type="string" name="PREC">accura</i>
   <i name="ENMAX">    520.00000000</i>
   <i name="ENAUG">    449.70400000</i>
   <i name="EDIFF">      0.00001000</i>
   <i type="int" name="IALGO">    68</i>
   <i type="int" name="IWAVPR">    10</i>
   <i type="int" name="NBANDS">    48</i>
   <i name="NELECT">     50.00000000</i>
   <i type="int" name="TURBO">     0</i>
   <i type="int" name="IRESTART">     0</i>
   <i type="int" name="NREBOOT">     0</i>
   <i type="int" name="NMIN">     0</i>
   <i name="EREF">      0.00000000</i>
   <separator name="electronic smearing" >
    <i type="int" name="ISMEAR">     0</i>
    <i name="SIGMA">      0.05000000</i>
    <i name="KSPACING">      0.50000000</i>
    <i type="logical" name="KGAMMA"> T  </i>
   </separator>
   <separator name="electronic projectors" >
    <i type="logical" name="LREAL"> F  </i>
    <v name="ROPT">      0.00000000      0.00000000</v>
    <i type="int" name="LMAXPAW">  -100</i>
    <i type="int" name="LMAXMIX">     2</i>
    <i type="logical" name="NLSPLINE"> F  </i>
   </separator>
   <separator name="electronic startup" >
    <i type="int" name="ISTART">     0</i>
    <i type="int" name="ICHARG">    11</i>
    <i type="int" name="INIWAV">     1</i>
   </separator>
   <separator name="electronic spin" >
    <i type="int" name="ISPIN">     2</i>
    <i type="logical" name="LNONCOLLINEAR"> F  </i>
    <v name="MAGMOM">      1.00000000      1.00000000      1.00000000      1.00000000      1.00000000      1.00000000</v>
    <i name="NUPDOWN">     -1.00000000</i>
    <i type="logical" name="LSORBIT"> F  </i>
    <v name="SAXIS">      0.00000000      0.00000000      1.00000000</v>
    <i type="logical" name="LSPIRAL"> F  </i>
    <v name="QSPIRAL">      0.00000000      0.00000000      0.00000000</v>
    <i type="logical" name="LZEROZ"> F  </i>
   </separator>
   <separator name="electronic exchange-correlation" >
    <i type="logical" name="LASPH"> F  </i>
    <i type="logical" name="LMETAGGA"> F  </i>
   </separator>
   <separator name="electronic convergence" >
    <i type="int" name="NELM">    60</i>
    <i type="int" name="NELMDL">    -5</i>
    <i type="int" name="NELMIN">     2</i>
    <i name="ENINI">    520.00000000</i>
    <separator name="electronic convergence detail" >
     <i type="logical" name="LDIAG"> T  </i>
     <i type="logical" name="LSUBROT"> F  </i>
     <i name="WEIMIN">      0.00000000</i>
     <i name="EBREAK">      0.00000005</i>
     <i name="DEPER">      0.30000000</i>
     <i type="int" name="NRMM">     4</i>
     <i name="TIME">      0.40000000</i>
    </separator>
   </separator>
   <separator name="electronic mixer" >
    <i name="AMIX">      0.40000000</i>
    <i name="BMIX">      1.00000000</i>
    <i name="AMIN">      0.10000000</i>
    <i name="AMIX_MAG">      1.60000000</i>
    <i name="BMIX_MAG">      1.00000000</i>
    <separator name="electronic mixer details" >
     <i type="int" name="IMIX">     4</i>
     <i type="logical" name="MIXFIRST"> F  </i>
     <i type="int" name="MAXMIX">   -45</i>
     <i name="WC">    100.00000000</i>
     <i type="int" name="INIMIX">     1</i>
     <i type="int" name="MIXPRE">     1</i>
     <i type="int" name="MREMOVE">     5</i>
    </separator>
   </separator>
   <separator name="electronic dipolcorrection" >
    <i type="logical" name="LDIPOL"> F  </i>
    <i type="logical" name="LMONO"> F  </i>
    <i type="int" name="IDIPOL">     0</i>
    <i name="EPSILON">      1.00000000</i>
    <v name="DIPOL">   -100.00000000   -100.00000000   -100.00000000</v>
    <i name="EFIELD">      0.00000000</i>
   </separator>
  </separator>
  <separator name="grids" >
   <i type="int" name="NGX">    64</i>
   <i type="int" name="NGY">    64</i>
   <i type="int" name="NGZ">    54</i>
   <i type="int" name="NGXF">   128</i>
   <i type="int" name="NGYF">   128</i>
   <i type="int" name="NGZF">   108</i>
   <i type="logical" name="ADDGRID"> T  </i>
  </separator>
  <separator name="ionic" >
   <i type="int" name="NSW">     0</i>
   <i type="int" name="IBRION">    -1</i>
   <i type="int" name="MDALGO">     0</i>
   <i type="int" name="ISIF">     2</i>
   <i name="PSTRESS">      0.00000000</i>
   <i name="EDIFFG">      0.00010000</i>
   <i type="int" name="NFREE">     0</i>
   <i name="POTIM">      0.50000000</i>
   <i name="SMASS">     -3.00000000</i>
   <i name="SCALEE">      1.00000000</i>
  </separator>
  <separator name="ionic md" >
   <i name="TEBEG">      0.00010000</i>
   <i name="TEEND">      0.00010000</i>
   <i type="int" name="NBLOCK">     1</i>
   <i type="int" name="KBLOCK">     1</i>
   <i type="int" name="NPACO">   256</i>
   <i name="APACO">     16.00000000</i>
  </separator>
  <separator name="symmetry" >
   <i type="int" name="ISYM">     2</i>
   <i name="SYMPREC">      0.00001000</i>
  </separator>
  <separator name="dos" >
   <i type="int" name="LORBIT">     0</i>
   <v name="RWIGS">     -1.00000000     -1.00000000</v>
   <i type="int" name="NEDOS">   301</i>
   <i name="EMIN">     10.00000000</i>
   <i name="EMAX">    -10.00000000</i>
   <i name="EFERMI">      0.00000000</i>
  </separator>
  <separator name="writing" >
   <i type="int" name="NWRITE">     1</i>
   <i type="logical" name="LWAVE"> F  </i>
   <i type="logical" name="LDOWNSAMPLE"> F  </i>
   <i type="logical" name="LCHARG"> F  </i>
   <i type="logical" name="LPARD"> F  </i>
   <i type="logical" name="LVTOT"> F  </i>
   <i type="logical" name="LVHAR"> F  </i>
   <i type="logical" name="LELF"> F  </i>
   <i type="logical" name="LOPTICS"> F  </i>
   <v name="STM">      0.00000000      0.00000000      0.00000000      0.00000000      0.00000000      0.00000000      0.00000000</v>
  </separator>
  <separator name="performance" >
   <i type="int" name="NPAR">    16</i>
   <i type="int" name="NSIM">     4</i>
   <i type="int" name="NBLK">    -1</i>
   <i type="logical" name="LPLANE"> T  </i>
   <i type="logical" name="LSCALAPACK"> T  </i>
   <i type="logical" name="LSCAAWARE"> F  </i>
   <i type="logical" name="LSCALU"> F  </i>
   <i type="logical" name="LASYNC"> F  </i>
   <i type="logical" name="LORBITALREAL"> F  </i>
  </separator>
  <separator name="miscellaneous" >
   <i type="int" name="IDIOT">     3</i>
   <i type="int" name="ISPECIAL">     0</i>
   <i type="logical" name="LMUSIC"> F  </i>
   <v name="POMASS">    114.82000000    127.60000000</v>
   <v name="DARWINR">      0.00000000      0.00000000</v>
   <v name="DARWINV">      1.00000000      1.00000000</v>
   <i type="logical" name="LCORR"> T  </i>
  </separator>
  <i type="logical" name="GGA_COMPAT"> T  </i>
  <i type="logical" name="LBERRY"> F  </i>
  <i type="int" name="ICORELEVEL">     0</i>
  <i type="logical" name="LDAU"> F  </i>
  <i type="int" name="I_CONSTRAINED_M">     0</i>
  <separator name="electronic exchange-correlation" >
   <i type="string" name="GGA">--</i>
   <i type="int" name="VOSKOWN">     0</i>
   <i type="logical" name="LHFCALC"> F  </i>
   <i type="string" name="PRECFOCK"></i>
   <i type="logical" name="LSYMGRAD"> F  </i>
   <i type="logical" name="LHFONE"> F  </i>
   <i type="logical" name="LRHFCALC"> F  </i>
   <i type="logical" name="LTHOMAS"> F  </i>
   <i type="logical" name="LMODELHF"> F  </i>
   <i name="ENCUT4O">     -1.00000000</i>
   <i type="int" name="EXXOEP">     0</i>
   <i type="int" name="FOURORBIT">     0</i>
   <i name="AEXX">      0.00000000</i>
   <i name="HFALPHA">      0.00000000</i>
   <i name="MCALPHA">      0.00000000</i>
   <i name="ALDAX">      1.00000000</i>
   <i name="AGGAX">      1.00000000</i>
   <i name="ALDAC">      1.00000000</i>
   <i name="AGGAC">      1.00000000</i>
   <i type="int" name="NKREDX">     1</i>
   <i type="int" name="NKREDY">     1</i>
   <i type="int" name="NKREDZ">     1</i>
   <i type="logical" name="SHIFTRED"> F  </i>
   <i type="logical" name="ODDONLY"> F  </i>
   <i type="logical" name="EVENONLY"> F  </i>
   <i type="int" name="LMAXFOCK">     0</i>
   <i type="int" name="NMAXFOCKAE">     0</i>
   <i type="logical" name="LFOCKAEDFT"> F  </i>
   <i name="HFSCREEN">      0.00000000</i>
   <i name="HFSCREENC">      0.00000000</i>
   <i type="int" name="NBANDSGWLOW">     0</i>
  </separator>
  <separator name="vdW DFT" >
   <i type="logical" name="LUSE_VDW"> F  </i>
   <i name="Zab_VDW">     -0.84910000</i>
   <i name="PARAM1">      0.12340000</i>
   <i name="PARAM2">      1.00000000</i>
   <i name="PARAM3">      0.00000000</i>
  </separator>
  <separator name="model GW" >
   <i type="int" name="MODEL_GW">     0</i>
   <i name="MODEL_EPS0">     52.07515553</i>
   <i name="MODEL_ALPHA">      1.00000000</i>
  </separator>
  <separator name="linear response parameters" >
   <i type="logical" name="LEPSILON"> F  </i>
   <i type="logical" name="LRPA"> F  </i>
   <i type="logical" name="LNABLA"> F  </i>
   <i type="logical" name="LVEL"> F  </i>
   <i type="int" name="KINTER">     0</i>
   <i name="CSHIFT">      0.10000000</i>
   <i name="OMEGAMAX">     -1.00000000</i>
   <i name="DEG_THRESHOLD">      0.00200000</i>
   <i name="RTIME">     -0.10000000</i>
   <i name="WPLASMAI">      0.00000000</i>
   <v name="DFIELD">      0.00000000      0.00000000      0.00000000</v>
   <v name="WPLASMA">      0.00000000      0.00000000      0.00000000      0.00000000      0.00000000      0.00000000      0.00000000      0.00000000      0.00000000</v>
  </separator>
  <separator name="orbital magnetization" >
   <i type="logical" name="NUCIND"> F  </i>
   <v name="MAGPOS">      0.00000000      0.00000000      0.00000000</v>
   <i type="logical" name="LNICSALL"> T  </i>
   <i type="logical" name="ORBITALMAG"> F  </i>
   <i type="logical" name="LMAGBLOCH"> F  </i>
   <i type="logical" name="LCHIMAG"> F  </i>
   <i type="logical" name="LGAUGE"> T  </i>
   <i type="int" name="MAGATOM">     0</i>
   <v name="MAGDIPOL">      0.00000000      0.00000000      0.00000000</v>
   <v name="AVECCONST">      0.00000000      0.00000000      0.00000000</v>
  </separator>
  <separator name="response functions" >
   <i type="logical" name="LADDER"> F  </i>
   <i type="logical" name="LRPAFORCE"> F  </i>
   <i type="logical" name="LFXC"> F  </i>
   <i type="logical" name="LHARTREE"> T  </i>
   <i type="int" name="IBSE">     0</i>
   <v type="int" name="KPOINT">    -1     0     0     0</v>
   <i type="logical" name="LTCTE"> F  </i>
   <i type="logical" name="LTETE"> F  </i>
   <i type="logical" name="LTRIPLET"> F  </i>
   <i type="logical" name="LFXCEPS"> F  </i>
   <i type="logical" name="LFXHEG"> F  </i>
   <i type="int" name="NATURALO">     2</i>
   <i type="logical" name="L2ORDER"> F  </i>
   <i type="logical" name="LMP2LT"> F  </i>
   <i type="logical" name="LUSEW"> F  </i>
   <i name="ENCUTGW">     -2.00000000</i>
   <i name="ENCUTGWSOFT">     -2.00000000</i>
   <i name="ENCUTLF">     -1.00000000</i>
   <i type="int" name="LMAXMP2">    -1</i>
   <i name="SCISSOR">      0.00000000</i>
   <i type="int" name="NOMEGA">     0</i>
   <i type="int" name="NOMEGAR">     0</i>
   <i type="int" name="NBANDSGW">    -1</i>
   <i type="int" name="NBANDSO">    -1</i>
   <i type="int" name="NBANDSV">    -1</i>
   <i type="int" name="NELM">     1</i>
   <i type="int" name="NELMHF">     1</i>
   <i type="int" name="DIM">     3</i>
   <i type="int" name="ANTIRES">     0</i>
   <i name="OMEGAMAX">    -30.00000000</i>
   <i name="OMEGAMIN">    -30.00000000</i>
   <i name="OMEGATL">   -200.00000000</i>
   <i type="int" name="OMEGAGRID">   140</i>
   <i name="CSHIFT">     -0.10000000</i>
   <i type="logical" name="SELFENERGY"> F  </i>
   <i type="logical" name="LSPECTRAL"> F  </i>
   <i type="logical" name="LSPECTRALGW"> F  </i>
   <i type="logical" name="LSINGLES"> F  </i>
   <i type="logical" name="LFERMIGW"> F  </i>
   <i type="logical" name="ODDONLYGW"> F  </i>
   <i type="logical" name="EVENONLYGW"> F  </i>
   <i type="int" name="NKREDLFX">     1</i>
   <i type="int" name="NKREDLFY">     1</i>
   <i type="int" name="NKREDLFZ">     1</i>
   <i type="int" name="MAXMEM">  2800</i>
   <i type="int" name="TELESCOPE">     0</i>
   <i type="int" name="TAUPAR">     1</i>
   <i type="int" name="OMEGAPAR">    -1</i>
   <i name="LAMBDA">      1.00000000</i>
  </separator>
  <separator name="External order field" >
   <i name="OFIELD_KAPPA">      0.00000000</i>
   <v name="OFIELD_K">      0.00000000      0.00000000      0.00000000</v>
   <i name="OFIELD_Q6_NEAR">      0.00000000</i>
   <i name="OFIELD_Q6_FAR">      0.00000000</i>
   <i name="OFIELD_A">      0.00000000</i>
  </separator>
 </parameters>
 <atominfo>
  <atoms>       6 </atoms>
  <types>       2 </types>
  <array name="atoms" >
   <dimension dim="1">ion</dimension>
   <field type="string">element</field>
   <field type="int">atomtype</field>
   <set>
    <rc><c>In</c><c>   1</c></rc>
    <rc><c>In</c><c>   1</c></rc>
    <rc><c>Te</c><c>   2</c></rc>
    <rc><c>Te</c><c>   2</c></rc>
    <rc><c>Te</c><c>   2</c></rc>
    <rc><c>Te</c><c>   2</c></rc>
   </set>
  </array>
  <array name="atomtypes" >
   <dimension dim="1">type</dimension>
   <field type="int">atomspertype</field>
   <field type="string">element</field>
   <field>mass</field>
   <field>valence</field>
   <field type="string">pseudopotential</field>
   <set>
    <rc><c>   2</c><c>In</c><c>    114.82000000</c><c>     13.00000000</c><c>  PAW_PBE In_d 06Sep2000                </c></rc>
    <rc><c>   4</c><c>Te</c><c>    127.60000000</c><c>      6.00000000</c><c>  PAW_PBE Te 08Apr2002                  </c></rc>
   </set>
  </array>
 </atominfo>
 <structure name="initialpos" >
  <crystal>
   <varray name="basis" >
    <v>       8.54774287       0.00000000       0.00000000 </v>
    <v>       0.00000000       8.54774287       0.00000000 </v>
    <v>       0.00000000       0.00000000       7.12734328 </v>
   </varray>
   <i name="volume">    520.75155532 </i>
   <varray name="rec_basis" >
    <v>       0.11698995       0.00000000       0.00000000 </v>
    <v>       0.00000000       0.11698995       0.00000000 </v>
    <v>       0.00000000       0.00000000       0.14030473 </v>
   </varray>
  </crystal>
  <varray name="positions" >
   <v>       0.50000000       0.50000000       0.25000000 </v>
   <v>       0.50000000       0.50000000       0.75000000 </v>
   <v>       0.68110312       0.68110311       0.00000000 </v>
   <v>       0.31889689       0.31889689       0.00000000 </v>
   <v>       0.31889689       0.68110311       0.50000000 </v>
   <v>       0.68110312       0.31889689       0.50000000 </v>
  </varray>
 </structure>
 <calculation>
  <scstep>
   <time name="dav">   15.85   15.87</time>
   <time name="total">   15.97   16.00</time>
   <energy>
    <i name="alphaZ">     15.22038120 </i>
    <i name="ewald">   -972.21341394 </i>
    <i name="hartreedc">  -2774.22727662 </i>
    <i name="XCdc">    -30.38616493 </i>
    <i name="pawpsdc">   5387.85927024 </i>
    <i name="pawaedc">  -5215.36566062 </i>
    <i name="eentropy">     -0.00511914 </i>
    <i name="bandstr">   -128.32293588 </i>
    <i name="atom">   4046.74041765 </i>
    <i name="e_fr_energy">    329.29949797 </i>
    <i name="e_wo_entrp">    329.30461711 </i>
    <i name="e_0_energy">    329.30205754 </i>
   </energy>
  </scstep>
  <scstep>
   <time name="dav">   17.70   17.79</time>
   <time name="total">   17.70   17.80</time>
   <energy>
    <i name="e_fr_energy">     12.98505126 </i>
    <i name="e_wo_entrp">     12.99196468 </i>
    <i name="e_0_energy">     12.98850797 </i>
   </energy>
  </scstep>
  <scstep>
   <time name="dav">   19.38   19.49</time>
   <time name="total">   19.39   19.49</time>
   <energy>
    <i name="e_fr_energy">    -16.05688252 </i>
    <i name="e_wo_entrp">    -16.04568065 </i>
    <i name="e_0_energy">    -16.05128159 </i>
   </energy>
  </scstep>
  <scstep>
   <time name="dav">   18.73   18.73</time>
   <time name="total">   18.73   18.74</time>
   <energy>
    <i name="e_fr_energy">    -17.09211217 </i>
    <i name="e_wo_entrp">    -17.08082000 </i>
    <i name="e_0_energy">    -17.08646609 </i>
   </energy>
  </scstep>
  <scstep>
   <time name="dav">   22.28   22.37</time>
   <time name="total">   22.28   22.38</time>
   <energy>
    <i name="e_fr_energy">    -17.11202888 </i>
    <i name="e_wo_entrp">    -17.10073590 </i>
    <i name="e_0_energy">    -17.10638239 </i>
   </energy>
  </scstep>
  <scstep>
   <time name="diag">    5.94    5.95</time>
   <time name="diis">    5.00    5.00</time>
   <time name="orth">    0.52    0.52</time>
   <time name="total">   11.46   11.47</time>
   <energy>
    <i name="e_fr_energy">    -17.11229611 </i>
    <i name="e_wo_entrp">    -17.10100339 </i>
    <i name="e_0_energy">    -17.10664975 </i>
   </energy>
  </scstep>
  <scstep>
   <time name="diag">    6.10    6.19</time>
   <time name="diis">    7.82    7.81</time>
   <time name="orth">    0.52    0.52</time>
   <time name="total">   14.43   14.52</time>
   <energy>
    <i name="e_fr_energy">    -17.11233019 </i>
    <i name="e_wo_entrp">    -17.10103751 </i>
    <i name="e_0_energy">    -17.10668385 </i>
   </energy>
  </scstep>
  <scstep>
   <time name="diag">    6.01    6.01</time>
   <time name="diis">    6.52    6.52</time>
   <time name="orth">    0.52    0.52</time>
   <time name="total">   13.05   13.05</time>
   <energy>
    <i name="alphaZ">     15.22038120 </i>
    <i name="ewald">   -972.21341394 </i>
    <i name="hartreedc">  -2774.22727662 </i>
    <i name="XCdc">    -30.38616493 </i>
    <i name="pawpsdc">   5387.85927024 </i>
    <i name="pawaedc">  -5215.36566062 </i>
    <i name="eentropy">     -0.01129268 </i>
    <i name="bandstr">   -474.72859388 </i>
    <i name="atom">   4046.74041765 </i>
    <i name="e_fr_energy">    -17.11233358 </i>
    <i name="e_wo_entrp">    -17.10104090 </i>
    <i name="e_0_energy">    -17.10668724 </i>
   </energy>
  </scstep>
  <structure>
   <crystal>
    <varray name="basis" >
     <v>       8.54774287       0.00000000       0.00000000 </v>
     <v>       0.00000000       8.54774287       0.00000000 </v>
     <v>       0.00000000       0.00000000       7.12734328 </v>
    </varray>
    <i name="volume">    520.75155532 </i>
    <varray name="rec_basis" >
     <v>       0.11698995       0.00000000       0.00000000 </v>
     <v>       0.00000000       0.11698995       0.00000000 </v>
     <v>       0.00000000       0.00000000       0.14030473 </v>
    </varray>
   </crystal>
   <varray name="positions" >
    <v>       0.50000000       0.50000000       0.25000000 </v>
    <v>       0.50000000       0.50000000       0.75000000 </v>
    <v>       0.68110312       0.68110311       0.00000000 </v>
    <v>       0.31889689       0.31889689       0.00000000 </v>
    <v>       0.31889689       0.68110311       0.50000000 </v>
    <v>       0.68110312       0.31889689       0.50000000 </v>
   </varray>
  </structure>
  <varray name="forces" >
   <v>       0.00000000       0.00000000       0.00000000 </v>
   <v>       0.00000000       0.00000000       0.00000000 </v>
   <v>       0.02374392       0.02374392       0.00000000 </v>
   <v>      -0.02374392      -0.02374392      -0.00000000 </v>
   <v>      -0.02374392       0.02374392       0.00000000 </v>
   <v>       0.02374392      -0.02374392      -0.00000000 </v>
  </varray>
  <varray name="stress" >
   <v>       0.44349022       0.00000000       0.00000000 </v>
   <v>       0.00000000       0.44349022       0.00000000 </v>
   <v>       0.00000000       0.00000000       0.74936294 </v>
  </varray>
  <energy>
   <i name="e_fr_energy">    -17.11233358 </i>
   <i name="e_wo_entrp">    -17.10668724 </i>
   <i name="e_0_energy">     -0.01129268 </i>
  </energy>
  <time name="totalsc">  139.68  140.13</time>
  <eigenvalues>
   <array>
    <dimension dim="1">band</dimension>
    <dimension dim="2">kpoint</dimension>
    <dimension dim="3">spin</dimension>
    <field>eigene</field>
    <field>occ</field>
    <set>
     <set comment="spin 1">
      <set comment="kpoint 1">
       <r>  -15.6455    1.0000 </r>
       <r>  -15.6455    1.0000 </r>
       <r>  -15.5823    1.0000 </r>
       <r>  -15.5513    1.0000 </r>
       <r>  -15.4845    1.0000 </r>
       <r>  -15.4743    1.0000 </r>
       <r>  -15.4743    1.0000 </r>
       <r>  -15.4386    1.0000 </r>
       <r>  -15.4258    1.0000 </r>
       <r>  -15.3662    1.0000 </r>
       <r>  -12.2542    1.0000 </r>
       <r>  -11.4703    1.0000 </r>
       <r>  -11.3537    1.0000 </r>
       <r>  -11.3537    1.0000 </r>
       <r>   -6.1511    1.0000 </r>
       <r>   -5.9592    1.0000 </r>
       <r>   -4.1065    1.0000 </r>
       <r>   -3.2291    1.0000 </r>
       <r>   -3.2291    1.0000 </r>
       <r>   -3.0151    1.0000 </r>
       <r>   -3.0151    1.0000 </r>
       <r>   -2.6314    1.0000 </r>
       <r>   -2.1538    1.0000 </r>
       <r>   -2.0985    1.0000 </r>
       <r>   -2.0985    1.0000 </r>
       <r>   -2.0127    1.0000 </r>
       <r>    0.5283    0.0000 </r>
       <r>    0.9372    0.0000 </r>
       <r>    2.3031    0.0000 </r>
       <r>    2.3031    0.0000 </r>
       <r>    2.8990    0.0000 </r>
       <r>    3.2191    0.0000 </r>
       <r>    3.8013    0.0000 </r>
       <r>    3.8013    0.0000 </r>
       <r>    4.3188    0.0000 </r>
       <r>    4.4203    0.0000 </r>
       <r>    4.4668    0.0000 </r>
       <r>    4.4861    0.0000 </r>
       <r>    4.7638    0.0000 </r>
       <r>    5.8028    0.0000 </r>
       <r>    5.8028    0.0000 </r>
       <r>    5.8572    0.0000 </r>
       <r>    6.4063    0.0000 </r>
       <r>    6.4063    0.0000 </r>
       <r>    6.4105    0.0000 </r>
       <r>    6.9689    0.0000 </r>
       <r>    6.9831    0.0000 </r>
       <r>    7.1013    0.0000 </r>
      </set>
      <set comment="kpoint 2">
       <r>  -15.6455    1.0000 </r>
       <r>  -15.6455    1.0000 </r>
       <r>  -15.5823    1.0000 </r>
       <r>  -15.5513    1.0000 </r>
       <r>  -15.4845    1.0000 </r>
       <r>  -15.4743    1.0000 </r>
       <r>  -15.4743    1.0000 </r>
       <r>  -15.4386    1.0000 </r>
       <r>  -15.4258    1.0000 </r>
       <r>  -15.3662    1.0000 </r>
       <r>  -12.2541    1.0000 </r>
       <r>  -11.4703    1.0000 </r>
       <r>  -11.3538    1.0000 </r>
       <r>  -11.3537    1.0000 </r>
       <r>   -6.1511    1.0000 </r>
       <r>   -5.9591    1.0000 </r>
       <r>   -4.1067    1.0000 </r>
       <r>   -3.2293    1.0000 </r>
       <r>   -3.2290    1.0000 </r>
       <r>   -3.0153    1.0000 </r>
       <r>   -3.0152    1.0000 </r>
       <r>   -2.6307    1.0000 </r>
       <r>   -2.1539    1.0000 </r>
       <r>   -2.0998    1.0000 </r>
       <r>   -2.0985    1.0000 </r>
       <r>   -2.0124    1.0000 </r>
       <r>    0.5290    0.0000 </r>
       <r>    0.9402    0.0000 </r>
       <r>    2.3026    0.0000 </r>
       <r>    2.3051    0.0000 </r>
       <r>    2.9004    0.0000 </r>
       <r>    3.2200    0.0000 </r>
       <r>    3.8003    0.0000 </r>
       <r>    3.8024    0.0000 </r>
       <r>    4.3211    0.0000 </r>
       <r>    4.4177    0.0000 </r>
       <r>    4.4618    0.0000 </r>
       <r>    4.4850    0.0000 </r>
       <r>    4.7542    0.0000 </r>
       <r>    5.8034    0.0000 </r>
       <r>    5.8110    0.0000 </r>
       <r>    5.8515    0.0000 </r>
       <r>    6.2995    0.0000 </r>
       <r>    6.3986    0.0000 </r>
       <r>    6.5241    0.0000 </r>
       <r>    6.9712    0.0000 </r>
       <r>    6.9725    0.0000 </r>
       <r>    7.0624    0.0000 </r>
      </set>
      <set comment="kpoint 3">
       <r>  -15.6455    1.0000 </r>
       <r>  -15.6455    1.0000 </r>
       <r>  -15.5823    1.0000 </r>
       <r>  -15.5513    1.0000 </r>
       <r>  -15.4845    1.0000 </r>
       <r>  -15.4743    1.0000 </r>
       <r>  -15.4743    1.0000 </r>
       <r>  -15.4386    1.0000 </r>
       <r>  -15.4258    1.0000 </r>
       <r>  -15.3662    1.0000 </r>
       <r>  -12.2541    1.0000 </r>
       <r>  -11.4703    1.0000 </r>
       <r>  -11.3539    1.0000 </r>
       <r>  -11.3537    1.0000 </r>
       <r>   -6.1510    1.0000 </r>
       <r>   -5.9588    1.0000 </r>
       <r>   -4.1072    1.0000 </r>
       <r>   -3.2299    1.0000 </r>
       <r>   -3.2288    1.0000 </r>
       <r>   -3.0159    1.0000 </r>
       <r>   -3.0153    1.0000 </r>
       <r>   -2.6284    1.0000 </r>
       <r>   -2.1543    1.0000 </r>
       <r>   -2.1038    1.0000 </r>
       <r>   -2.0987    1.0000 </r>
       <r>   -2.0113    1.0000 </r>
       <r>    0.5314    0.0000 </r>
       <r>    0.9491    0.0000 </r>
       <r>    2.3014    0.0000 </r>
       <r>    2.3110    0.0000 </r>
       <r>    2.9047    0.0000 </r>
       <r>    3.2225    0.0000 </r>
       <r>    3.7972    0.0000 </r>
       <r>    3.8057    0.0000 </r>
       <r>    4.3278    0.0000 </r>
       <r>    4.4089    0.0000 </r>
       <r>    4.4471    0.0000 </r>
       <r>    4.4819    0.0000 </r>
       <r>    4.7281    0.0000 </r>
       <r>    5.8048    0.0000 </r>
       <r>    5.8322    0.0000 </r>
       <r>    5.8347    0.0000 </r>
       <r>    6.2020    0.0000 </r>
       <r>    6.3768    0.0000 </r>
       <r>    6.6433    0.0000 </r>
       <r>    6.8551    0.0000 </r>
       <r>    6.9745    0.0000 </r>
       <r>    6.9873    0.0000 </r>
      </set>
      <set comment="kpoint 4">
       <r>  -15.6455    1.0000 </r>
       <r>  -15.6455    1.0000 </r>
       <r>  -15.5823    1.0000 </r>
       <r>  -15.5513    1.0000 </r>
       <r>  -15.4845    1.0000 </r>
       <r>  -15.4743    1.0000 </r>
       <r>  -15.4743    1.0000 </r>
       <r>  -15.4386    1.0000 </r>
       <r>  -15.4258    1.0000 </r>
       <r>  -15.3662    1.0000 </r>
       <r>  -12.2539    1.0000 </r>
       <r>  -11.4703    1.0000 </r>
       <r>  -11.3541    1.0000 </r>
       <r>  -11.3537    1.0000 </r>
       <r>   -6.1509    1.0000 </r>
       <r>   -5.9583    1.0000 </r>
       <r>   -4.1080    1.0000 </r>
       <r>   -3.2309    1.0000 </r>
       <r>   -3.2285    1.0000 </r>
       <r>   -3.0168    1.0000 </r>
       <r>   -3.0156    1.0000 </r>
       <r>   -2.6248    1.0000 </r>
       <r>   -2.1549    1.0000 </r>
       <r>   -2.1102    1.0000 </r>
       <r>   -2.0988    1.0000 </r>
       <r>   -2.0097    1.0000 </r>
       <r>    0.5352    0.0000 </r>
       <r>    0.9636    0.0000 </r>
       <r>    2.2993    0.0000 </r>
       <r>    2.3209    0.0000 </r>
       <r>    2.9116    0.0000 </r>
       <r>    3.2268    0.0000 </r>
       <r>    3.7921    0.0000 </r>
       <r>    3.8111    0.0000 </r>
       <r>    4.3389    0.0000 </r>
       <r>    4.3904    0.0000 </r>
       <r>    4.4236    0.0000 </r>
       <r>    4.4768    0.0000 </r>
       <r>    4.6935    0.0000 </r>
       <r>    5.8051    0.0000 </r>
       <r>    5.8075    0.0000 </r>
       <r>    5.8541    0.0000 </r>
       <r>    6.1252    0.0000 </r>
       <r>    6.3443    0.0000 </r>
       <r>    6.7179    0.0000 </r>
       <r>    6.7616    0.0000 </r>
       <r>    6.9883    0.0000 </r>
       <r>    6.9996    0.0000 </r>
      </set>
      <set comment="kpoint 5">
       <r>  -15.6455    1.0000 </r>
       <r>  -15.6455    1.0000 </r>
       <r>  -15.5823    1.0000 </r>
       <r>  -15.5513    1.0000 </r>
       <r>  -15.4845    1.0000 </r>
       <r>  -15.4743    1.0000 </r>
       <r>  -15.4743    1.0000 </r>
       <r>  -15.4386    1.0000 </r>
       <r>  -15.4258    1.0000 </r>
       <r>  -15.3662    1.0000 </r>
       <r>  -12.2538    1.0000 </r>
       <r>  -11.4703    1.0000 </r>
       <r>  -11.3544    1.0000 </r>
       <r>  -11.3537    1.0000 </r>
       <r>   -6.1507    1.0000 </r>
       <r>   -5.9576    1.0000 </r>
       <r>   -4.1090    1.0000 </r>
       <r>   -3.2322    1.0000 </r>
       <r>   -3.2280    1.0000 </r>
       <r>   -3.0179    1.0000 </r>
       <r>   -3.0159    1.0000 </r>
       <r>   -2.6199    1.0000 </r>
       <r>   -2.1558    1.0000 </r>
       <r>   -2.1189    1.0000 </r>
       <r>   -2.0990    1.0000 </r>
       <r>   -2.0076    1.0000 </r>
       <r>    0.5402    0.0000 </r>
       <r>    0.9832    0.0000 </r>
       <r>    2.2964    0.0000 </r>
       <r>    2.3343    0.0000 </r>
       <r>    2.9207    0.0000 </r>
       <r>    3.2328    0.0000 </r>
       <r>    3.7854    0.0000 </r>
       <r>    3.8184    0.0000 </r>
       <r>    4.3543    0.0000 </r>
       <r>    4.3570    0.0000 </r>
       <r>    4.3929    0.0000 </r>
       <r>    4.4699    0.0000 </r>
       <r>    4.6608    0.0000 </r>
       <r>    5.7711    0.0000 </r>
       <r>    5.8016    0.0000 </r>
       <r>    5.8520    0.0000 </r>
       <r>    6.0902    0.0000 </r>
       <r>    6.3047    0.0000 </r>
       <r>    6.5926    0.0000 </r>
       <r>    6.8725    0.0000 </r>
       <r>    6.9945    0.0000 </r>
       <r>    7.0070    0.0000 </r>
      </set>
      <set comment="kpoint 6">
       <r>  -15.6455    1.0000 </r>
       <r>  -15.6455    1.0000 </r>
       <r>  -15.5823    1.0000 </r>
       <r>  -15.5513    1.0000 </r>
       <r>  -15.4845    1.0000 </r>
       <r>  -15.4743    1.0000 </r>
       <r>  -15.4743    1.0000 </r>
       <r>  -15.4386    1.0000 </r>
       <r>  -15.4258    1.0000 </r>
       <r>  -15.3662    1.0000 </r>
       <r>  -12.2535    1.0000 </r>
       <r>  -11.4703    1.0000 </r>
       <r>  -11.3548    1.0000 </r>
       <r>  -11.3537    1.0000 </r>
       <r>   -6.1505    1.0000 </r>
       <r>   -5.9567    1.0000 </r>
       <r>   -4.1103    1.0000 </r>
       <r>   -3.2338    1.0000 </r>
       <r>   -3.2275    1.0000 </r>
       <r>   -3.0194    1.0000 </r>
       <r>   -3.0164    1.0000 </r>
       <r>   -2.6138    1.0000 </r>
       <r>   -2.1568    1.0000 </r>
       <r>   -2.1296    1.0000 </r>
       <r>   -2.0991    1.0000 </r>
       <r>   -2.0052    1.0000 </r>
       <r>    0.5464    0.0000 </r>
       <r>    1.0073    0.0000 </r>
       <r>    2.2928    0.0000 </r>
       <r>    2.3512    0.0000 </r>
       <r>    2.9316    0.0000 </r>
       <r>    3.2407    0.0000 </r>
       <r>    3.7773    0.0000 </r>
       <r>    3.8275    0.0000 </r>
       <r>    4.3053    0.0000 </r>
       <r>    4.3565    0.0000 </r>
       <r>    4.3738    0.0000 </r>
       <r>    4.4613    0.0000 </r>
       <r>    4.6385    0.0000 </r>
       <r>    5.7267    0.0000 </r>
       <r>    5.7901    0.0000 </r>
       <r>    5.8108    0.0000 </r>
       <r>    6.1083    0.0000 </r>
       <r>    6.2606    0.0000 </r>
       <r>    6.4851    0.0000 </r>
       <r>    6.9627    0.0000 </r>
       <r>    7.0068    0.0000 </r>
       <r>    7.0249    0.0000 </r>
      </set>
      <set comment="kpoint 7">
       <r>  -15.6455    1.0000 </r>
       <r>  -15.6455    1.0000 </r>
       <r>  -15.5823    1.0000 </r>
       <r>  -15.5513    1.0000 </r>
       <r>  -15.4845    1.0000 </r>
       <r>  -15.4743    1.0000 </r>
       <r>  -15.4743    1.0000 </r>
       <r>  -15.4386    1.0000 </r>
       <r>  -15.4258    1.0000 </r>
       <r>  -15.3662    1.0000 </r>
       <r>  -12.2533    1.0000 </r>
       <r>  -11.4703    1.0000 </r>
       <r>  -11.3552    1.0000 </r>
       <r>  -11.3537    1.0000 </r>
       <r>   -6.1502    1.0000 </r>
       <r>   -5.9558    1.0000 </r>
       <r>   -4.1117    1.0000 </r>
       <r>   -3.2357    1.0000 </r>
       <r>   -3.2268    1.0000 </r>
       <r>   -3.0209    1.0000 </r>
       <r>   -3.0169    1.0000 </r>
       <r>   -2.6067    1.0000 </r>
       <r>   -2.1580    1.0000 </r>
       <r>   -2.1418    1.0000 </r>
       <r>   -2.0991    1.0000 </r>
       <r>   -2.0025    1.0000 </r>
       <r>    0.5534    0.0000 </r>
       <r>    1.0349    0.0000 </r>
       <r>    2.2885    0.0000 </r>
       <r>    2.3711    0.0000 </r>
       <r>    2.9435    0.0000 </r>
       <r>    3.2507    0.0000 </r>
       <r>    3.7682    0.0000 </r>
       <r>    3.8381    0.0000 </r>
       <r>    4.2369    0.0000 </r>
       <r>    4.3165    0.0000 </r>
       <r>    4.3972    0.0000 </r>
       <r>    4.4512    0.0000 </r>
       <r>    4.6288    0.0000 </r>
       <r>    5.6759    0.0000 </r>
       <r>    5.7496    0.0000 </r>
       <r>    5.7663    0.0000 </r>
       <r>    6.1574    0.0000 </r>
       <r>    6.2144    0.0000 </r>
       <r>    6.4004    0.0000 </r>
       <r>    7.0144    0.0000 </r>
       <r>    7.0199    0.0000 </r>
       <r>    7.0409    0.0000 </r>
      </set>
      <set comment="kpoint 8">
       <r>  -15.6455    1.0000 </r>
       <r>  -15.6455    1.0000 </r>
       <r>  -15.5823    1.0000 </r>
       <r>  -15.5513    1.0000 </r>
       <r>  -15.4845    1.0000 </r>
       <r>  -15.4743    1.0000 </r>
       <r>  -15.4743    1.0000 </r>
       <r>  -15.4386    1.0000 </r>
       <r>  -15.4258    1.0000 </r>
       <r>  -15.3662    1.0000 </r>
       <r>  -12.2530    1.0000 </r>
       <r>  -11.4703    1.0000 </r>
       <r>  -11.3556    1.0000 </r>
       <r>  -11.3536    1.0000 </r>
       <r>   -6.1500    1.0000 </r>
       <r>   -5.9547    1.0000 </r>
       <r>   -4.1132    1.0000 </r>
       <r>   -3.2376    1.0000 </r>
       <r>   -3.2262    1.0000 </r>
       <r>   -3.0226    1.0000 </r>
       <r>   -3.0174    1.0000 </r>
       <r>   -2.5989    1.0000 </r>
       <r>   -2.1593    1.0000 </r>
       <r>   -2.1551    1.0000 </r>
       <r>   -2.0990    1.0000 </r>
       <r>   -1.9999    1.0000 </r>
       <r>    0.5609    0.0000 </r>
       <r>    1.0652    0.0000 </r>
       <r>    2.2836    0.0000 </r>
       <r>    2.3934    0.0000 </r>
       <r>    2.9559    0.0000 </r>
       <r>    3.2632    0.0000 </r>
       <r>    3.7584    0.0000 </r>
       <r>    3.8499    0.0000 </r>
       <r>    4.1571    0.0000 </r>
       <r>    4.2750    0.0000 </r>
       <r>    4.4241    0.0000 </r>
       <r>    4.4400    0.0000 </r>
       <r>    4.6294    0.0000 </r>
       <r>    5.6204    0.0000 </r>
       <r>    5.6852    0.0000 </r>
       <r>    5.7269    0.0000 </r>
       <r>    6.1701    0.0000 </r>
       <r>    6.2183    0.0000 </r>
       <r>    6.3395    0.0000 </r>
       <r>    7.0317    0.0000 </r>
       <r>    7.0347    0.0000 </r>
       <r>    7.0569    0.0000 </r>
      </set>
      <set comment="kpoint 9">
       <r>  -15.6455    1.0000 </r>
       <r>  -15.6455    1.0000 </r>
       <r>  -15.5823    1.0000 </r>
       <r>  -15.5513    1.0000 </r>
       <r>  -15.4845    1.0000 </r>
       <r>  -15.4743    1.0000 </r>
       <r>  -15.4743    1.0000 </r>
       <r>  -15.4386    1.0000 </r>
       <r>  -15.4258    1.0000 </r>
       <r>  -15.3662    1.0000 </r>
       <r>  -12.2528    1.0000 </r>
       <r>  -11.4703    1.0000 </r>
       <r>  -11.3561    1.0000 </r>
       <r>  -11.3536    1.0000 </r>
       <r>   -6.1497    1.0000 </r>
       <r>   -5.9537    1.0000 </r>
       <r>   -4.1148    1.0000 </r>
       <r>   -3.2396    1.0000 </r>
       <r>   -3.2255    1.0000 </r>
       <r>   -3.0243    1.0000 </r>
       <r>   -3.0180    1.0000 </r>
       <r>   -2.5905    1.0000 </r>
       <r>   -2.1690    1.0000 </r>
       <r>   -2.1606    1.0000 </r>
       <r>   -2.0987    1.0000 </r>
       <r>   -1.9973    1.0000 </r>
       <r>    0.5686    0.0000 </r>
       <r>    1.0969    0.0000 </r>
       <r>    2.2783    0.0000 </r>
       <r>    2.4177    0.0000 </r>
       <r>    2.9677    0.0000 </r>
       <r>    3.2785    0.0000 </r>
       <r>    3.7484    0.0000 </r>
       <r>    3.8624    0.0000 </r>
       <r>    4.0712    0.0000 </r>
       <r>    4.2339    0.0000 </r>
       <r>    4.4280    0.0000 </r>
       <r>    4.4540    0.0000 </r>
       <r>    4.6370    0.0000 </r>
       <r>    5.5618    0.0000 </r>
       <r>    5.6239    0.0000 </r>
       <r>    5.6730    0.0000 </r>
       <r>    6.1322    0.0000 </r>
       <r>    6.2832    0.0000 </r>
       <r>    6.2983    0.0000 </r>
       <r>    7.0350    0.0000 </r>
       <r>    7.0553    0.0000 </r>
       <r>    7.0646    0.0000 </r>
      </set>
      <set comment="kpoint 10">
       <r>  -15.6455    1.0000 </r>
       <r>  -15.6455    1.0000 </r>
       <r>  -15.5823    1.0000 </r>
       <r>  -15.5513    1.0000 </r>
       <r>  -15.4845    1.0000 </r>
       <r>  -15.4743    1.0000 </r>
       <r>  -15.4743    1.0000 </r>
       <r>  -15.4386    1.0000 </r>
       <r>  -15.4258    1.0000 </r>
       <r>  -15.3662    1.0000 </r>
       <r>  -12.2525    1.0000 </r>
       <r>  -11.4703    1.0000 </r>
       <r>  -11.3565    1.0000 </r>
       <r>  -11.3536    1.0000 </r>
       <r>   -6.1494    1.0000 </r>
       <r>   -5.9526    1.0000 </r>
       <r>   -4.1163    1.0000 </r>
       <r>   -3.2415    1.0000 </r>
       <r>   -3.2248    1.0000 </r>
       <r>   -3.0259    1.0000 </r>
       <r>   -3.0185    1.0000 </r>
       <r>   -2.5818    1.0000 </r>
       <r>   -2.1830    1.0000 </r>
       <r>   -2.1618    1.0000 </r>
       <r>   -2.0983    1.0000 </r>
       <r>   -1.9948    1.0000 </r>
       <r>    0.5761    0.0000 </r>
       <r>    1.1287    0.0000 </r>
       <r>    2.2726    0.0000 </r>
       <r>    2.4429    0.0000 </r>
       <r>    2.9783    0.0000 </r>
       <r>    3.2973    0.0000 </r>
       <r>    3.7386    0.0000 </r>
       <r>    3.8752    0.0000 </r>
       <r>    3.9835    0.0000 </r>
       <r>    4.1952    0.0000 </r>
       <r>    4.4158    0.0000 </r>
       <r>    4.4862    0.0000 </r>
       <r>    4.6491    0.0000 </r>
       <r>    5.5020    0.0000 </r>
       <r>    5.5679    0.0000 </r>
       <r>    5.6099    0.0000 </r>
       <r>    6.1025    0.0000 </r>
       <r>    6.2713    0.0000 </r>
       <r>    6.3483    0.0000 </r>
       <r>    7.0343    0.0000 </r>
       <r>    7.0632    0.0000 </r>
       <r>    7.0799    0.0000 </r>
      </set>
      <set comment="kpoint 11">
       <r>  -15.6455    1.0000 </r>
       <r>  -15.6455    1.0000 </r>
       <r>  -15.5823    1.0000 </r>
       <r>  -15.5513    1.0000 </r>
       <r>  -15.4845    1.0000 </r>
       <r>  -15.4743    1.0000 </r>
       <r>  -15.4743    1.0000 </r>
       <r>  -15.4386    1.0000 </r>
       <r>  -15.4258    1.0000 </r>
       <r>  -15.3662    1.0000 </r>
       <r>  -12.2523    1.0000 </r>
       <r>  -11.4704    1.0000 </r>
       <r>  -11.3569    1.0000 </r>
       <r>  -11.3535    1.0000 </r>
       <r>   -6.1492    1.0000 </r>
       <r>   -5.9517    1.0000 </r>
       <r>   -4.1177    1.0000 </r>
       <r>   -3.2433    1.0000 </r>
       <r>   -3.2242    1.0000 </r>
       <r>   -3.0273    1.0000 </r>
       <r>   -3.0191    1.0000 </r>
       <r>   -2.5734    1.0000 </r>
       <r>   -2.1964    1.0000 </r>
       <r>   -2.1630    1.0000 </r>
       <r>   -2.0979    1.0000 </r>
       <r>   -1.9927    1.0000 </r>
       <r>    0.5832    0.0000 </r>
       <r>    1.1593    0.0000 </r>
       <r>    2.2668    0.0000 </r>
       <r>    2.4680    0.0000 </r>
       <r>    2.9869    0.0000 </r>
       <r>    3.3201    0.0000 </r>
       <r>    3.7294    0.0000 </r>
       <r>    3.8877    0.0000 </r>
       <r>    3.8969    0.0000 </r>
       <r>    4.1604    0.0000 </r>
       <r>    4.4038    0.0000 </r>
       <r>    4.5196    0.0000 </r>
       <r>    4.6635    0.0000 </r>
       <r>    5.4433    0.0000 </r>
       <r>    5.5186    0.0000 </r>
       <r>    5.5446    0.0000 </r>
       <r>    6.0798    0.0000 </r>
       <r>    6.2536    0.0000 </r>
       <r>    6.4109    0.0000 </r>
       <r>    7.0327    0.0000 </r>
       <r>    7.0510    0.0000 </r>
       <r>    7.1098    0.0000 </r>
      </set>
      <set comment="kpoint 12">
       <r>  -15.6455    1.0000 </r>
       <r>  -15.6455    1.0000 </r>
       <r>  -15.5823    1.0000 </r>
       <r>  -15.5513    1.0000 </r>
       <r>  -15.4845    1.0000 </r>
       <r>  -15.4743    1.0000 </r>
       <r>  -15.4743    1.0000 </r>
       <r>  -15.4386    1.0000 </r>
       <r>  -15.4258    1.0000 </r>
       <r>  -15.3662    1.0000 </r>
       <r>  -12.2521    1.0000 </r>
       <r>  -11.4703    1.0000 </r>
       <r>  -11.3572    1.0000 </r>
       <r>  -11.3535    1.0000 </r>
       <r>   -6.1490    1.0000 </r>
       <r>   -5.9508    1.0000 </r>
       <r>   -4.1189    1.0000 </r>
       <r>   -3.2449    1.0000 </r>
       <r>   -3.2236    1.0000 </r>
       <r>   -3.0286    1.0000 </r>
       <r>   -3.0196    1.0000 </r>
       <r>   -2.5655    1.0000 </r>
       <r>   -2.2087    1.0000 </r>
       <r>   -2.1641    1.0000 </r>
       <r>   -2.0974    1.0000 </r>
       <r>   -1.9908    1.0000 </r>
       <r>    0.5895    0.0000 </r>
       <r>    1.1871    0.0000 </r>
       <r>    2.2612    0.0000 </r>
       <r>    2.4918    0.0000 </r>
       <r>    2.9932    0.0000 </r>
       <r>    3.3476    0.0000 </r>
       <r>    3.7213    0.0000 </r>
       <r>    3.8135    0.0000 </r>
       <r>    3.8992    0.0000 </r>
       <r>    4.1310    0.0000 </r>
       <r>    4.3926    0.0000 </r>
       <r>    4.5528    0.0000 </r>
       <r>    4.6784    0.0000 </r>
       <r>    5.3880    0.0000 </r>
       <r>    5.4765    0.0000 </r>
       <r>    5.4835    0.0000 </r>
       <r>    6.0626    0.0000 </r>
       <r>    6.2421    0.0000 </r>
       <r>    6.4688    0.0000 </r>
       <r>    7.0290    0.0000 </r>
       <r>    7.0371    0.0000 </r>
       <r>    7.1227    0.0000 </r>
      </set>
      <set comment="kpoint 13">
       <r>  -15.6455    1.0000 </r>
       <r>  -15.6455    1.0000 </r>
       <r>  -15.5823    1.0000 </r>
       <r>  -15.5513    1.0000 </r>
       <r>  -15.4845    1.0000 </r>
       <r>  -15.4743    1.0000 </r>
       <r>  -15.4743    1.0000 </r>
       <r>  -15.4386    1.0000 </r>
       <r>  -15.4258    1.0000 </r>
       <r>  -15.3662    1.0000 </r>
       <r>  -12.2519    1.0000 </r>
       <r>  -11.4703    1.0000 </r>
       <r>  -11.3575    1.0000 </r>
       <r>  -11.3535    1.0000 </r>
       <r>   -6.1488    1.0000 </r>
       <r>   -5.9501    1.0000 </r>
       <r>   -4.1200    1.0000 </r>
       <r>   -3.2462    1.0000 </r>
       <r>   -3.2232    1.0000 </r>
       <r>   -3.0297    1.0000 </r>
       <r>   -3.0200    1.0000 </r>
       <r>   -2.5586    1.0000 </r>
       <r>   -2.2192    1.0000 </r>
       <r>   -2.1649    1.0000 </r>
       <r>   -2.0969    1.0000 </r>
       <r>   -1.9894    1.0000 </r>
       <r>    0.5947    0.0000 </r>
       <r>    1.2106    0.0000 </r>
       <r>    2.2561    0.0000 </r>
       <r>    2.5128    0.0000 </r>
       <r>    2.9971    0.0000 </r>
       <r>    3.3802    0.0000 </r>
       <r>    3.7146    0.0000 </r>
       <r>    3.7351    0.0000 </r>
       <r>    3.9092    0.0000 </r>
       <r>    4.1077    0.0000 </r>
       <r>    4.3830    0.0000 </r>
       <r>    4.5836    0.0000 </r>
       <r>    4.6923    0.0000 </r>
       <r>    5.3391    0.0000 </r>
       <r>    5.4314    0.0000 </r>
       <r>    5.4426    0.0000 </r>
       <r>    6.0498    0.0000 </r>
       <r>    6.2347    0.0000 </r>
       <r>    6.5192    0.0000 </r>
       <r>    7.0121    0.0000 </r>
       <r>    7.0479    0.0000 </r>
       <r>    7.1305    0.0000 </r>
      </set>
      <set comment="kpoint 14">
       <r>  -15.6455    1.0000 </r>
       <r>  -15.6455    1.0000 </r>
       <r>  -15.5823    1.0000 </r>
       <r>  -15.5513    1.0000 </r>
       <r>  -15.4845    1.0000 </r>
       <r>  -15.4743    1.0000 </r>
       <r>  -15.4743    1.0000 </r>
       <r>  -15.4386    1.0000 </r>
       <r>  -15.4258    1.0000 </r>
       <r>  -15.3662    1.0000 </r>
       <r>  -12.2518    1.0000 </r>
       <r>  -11.4703    1.0000 </r>
       <r>  -11.3577    1.0000 </r>
       <r>  -11.3535    1.0000 </r>
       <r>   -6.1487    1.0000 </r>
       <r>   -5.9496    1.0000 </r>
       <r>   -4.1207    1.0000 </r>
       <r>   -3.2472    1.0000 </r>
       <r>   -3.2228    1.0000 </r>
       <r>   -3.0304    1.0000 </r>
       <r>   -3.0203    1.0000 </r>
       <r>   -2.5532    1.0000 </r>
       <r>   -2.2272    1.0000 </r>
       <r>   -2.1656    1.0000 </r>
       <r>   -2.0966    1.0000 </r>
       <r>   -1.9883    1.0000 </r>
       <r>    0.5986    0.0000 </r>
       <r>    1.2285    0.0000 </r>
       <r>    2.2521    0.0000 </r>
       <r>    2.5294    0.0000 </r>
       <r>    2.9992    0.0000 </r>
       <r>    3.4177    0.0000 </r>
       <r>    3.6635    0.0000 </r>
       <r>    3.7096    0.0000 </r>
       <r>    3.9170    0.0000 </r>
       <r>    4.0909    0.0000 </r>
       <r>    4.3755    0.0000 </r>
       <r>    4.6093    0.0000 </r>
       <r>    4.7036    0.0000 </r>
       <r>    5.3000    0.0000 </r>
       <r>    5.3919    0.0000 </r>
       <r>    5.4175    0.0000 </r>
       <r>    6.0410    0.0000 </r>
       <r>    6.2301    0.0000 </r>
       <r>    6.5589    0.0000 </r>
       <r>    6.9911    0.0000 </r>
       <r>    7.0562    0.0000 </r>
       <r>    7.1447    0.0000 </r>
      </set>
      <set comment="kpoint 15">
       <r>  -15.6455    1.0000 </r>
       <r>  -15.6455    1.0000 </r>
       <r>  -15.5823    1.0000 </r>
       <r>  -15.5513    1.0000 </r>
       <r>  -15.4845    1.0000 </r>
       <r>  -15.4743    1.0000 </r>
       <r>  -15.4743    1.0000 </r>
       <r>  -15.4386    1.0000 </r>
       <r>  -15.4258    1.0000 </r>
       <r>  -15.3662    1.0000 </r>
       <r>  -12.2517    1.0000 </r>
       <r>  -11.4703    1.0000 </r>
       <r>  -11.3579    1.0000 </r>
       <r>  -11.3535    1.0000 </r>
       <r>   -6.1486    1.0000 </r>
       <r>   -5.9493    1.0000 </r>
       <r>   -4.1212    1.0000 </r>
       <r>   -3.2478    1.0000 </r>
       <r>   -3.2226    1.0000 </r>
       <r>   -3.0309    1.0000 </r>
       <r>   -3.0205    1.0000 </r>
       <r>   -2.5498    1.0000 </r>
       <r>   -2.2323    1.0000 </r>
       <r>   -2.1660    1.0000 </r>
       <r>   -2.0963    1.0000 </r>
       <r>   -1.9877    1.0000 </r>
       <r>    0.6011    0.0000 </r>
       <r>    1.2398    0.0000 </r>
       <r>    2.2495    0.0000 </r>
       <r>    2.5401    0.0000 </r>
       <r>    3.0000    0.0000 </r>
       <r>    3.4579    0.0000 </r>
       <r>    3.6025    0.0000 </r>
       <r>    3.7065    0.0000 </r>
       <r>    3.9219    0.0000 </r>
       <r>    4.0810    0.0000 </r>
       <r>    4.3707    0.0000 </r>
       <r>    4.6266    0.0000 </r>
       <r>    4.7111    0.0000 </r>
       <r>    5.2744    0.0000 </r>
       <r>    5.3672    0.0000 </r>
       <r>    5.4021    0.0000 </r>
       <r>    6.0357    0.0000 </r>
       <r>    6.2275    0.0000 </r>
       <r>    6.5847    0.0000 </r>
       <r>    6.9852    0.0000 </r>
       <r>    7.1059    0.0000 </r>
       <r>    7.1704    0.0000 </r>
      </set>
      <set comment="kpoint 16">
       <r>  -15.6455    1.0000 </r>
       <r>  -15.6455    1.0000 </r>
       <r>  -15.5823    1.0000 </r>
       <r>  -15.5513    1.0000 </r>
       <r>  -15.4845    1.0000 </r>
       <r>  -15.4743    1.0000 </r>
       <r>  -15.4743    1.0000 </r>
       <r>  -15.4386    1.0000 </r>
       <r>  -15.4258    1.0000 </r>
       <r>  -15.3662    1.0000 </r>
       <r>  -12.2516    1.0000 </r>
       <r>  -11.4703    1.0000 </r>
       <r>  -11.3579    1.0000 </r>
       <r>  -11.3535    1.0000 </r>
       <r>   -6.1485    1.0000 </r>
       <r>   -5.9492    1.0000 </r>
       <r>   -4.1214    1.0000 </r>
       <r>   -3.2480    1.0000 </r>
       <r>   -3.2225    1.0000 </r>
       <r>   -3.0311    1.0000 </r>
       <r>   -3.0205    1.0000 </r>
       <r>   -2.5486    1.0000 </r>
       <r>   -2.2340    1.0000 </r>
       <r>   -2.1661    1.0000 </r>
       <r>   -2.0962    1.0000 </r>
       <r>   -1.9874    1.0000 </r>
       <r>    0.6019    0.0000 </r>
       <r>    1.2437    0.0000 </r>
       <r>    2.2486    0.0000 </r>
       <r>    2.5438    0.0000 </r>
       <r>    3.0002    0.0000 </r>
       <r>    3.4828    0.0000 </r>
       <r>    3.5705    0.0000 </r>
       <r>    3.7055    0.0000 </r>
       <r>    3.9236    0.0000 </r>
       <r>    4.0776    0.0000 </r>
       <r>    4.3691    0.0000 </r>
       <r>    4.6328    0.0000 </r>
       <r>    4.7137    0.0000 </r>
       <r>    5.2655    0.0000 </r>
       <r>    5.3588    0.0000 </r>
       <r>    5.3969    0.0000 </r>
       <r>    6.0340    0.0000 </r>
       <r>    6.2267    0.0000 </r>
       <r>    6.5934    0.0000 </r>
       <r>    6.9791    0.0000 </r>
       <r>    7.0817    0.0000 </r>
       <r>    7.1675    0.0000 </r>
      </set>
      <set comment="kpoint 17">
       <r>  -15.6455    1.0000 </r>
       <r>  -15.6455    1.0000 </r>
       <r>  -15.5823    1.0000 </r>
       <r>  -15.5513    1.0000 </r>
       <r>  -15.4845    1.0000 </r>
       <r>  -15.4743    1.0000 </r>
       <r>  -15.4743    1.0000 </r>
       <r>  -15.4386    1.0000 </r>
       <r>  -15.4258    1.0000 </r>
       <r>  -15.3662    1.0000 </r>
       <r>  -12.2516    1.0000 </r>
       <r>  -11.4703    1.0000 </r>
       <r>  -11.3579    1.0000 </r>
       <r>  -11.3535    1.0000 </r>
       <r>   -6.1485    1.0000 </r>
       <r>   -5.9492    1.0000 </r>
       <r>   -4.1214    1.0000 </r>
       <r>   -3.2480    1.0000 </r>
       <r>   -3.2225    1.0000 </r>
       <r>   -3.0311    1.0000 </r>
       <r>   -3.0205    1.0000 </r>
       <r>   -2.5486    1.0000 </r>
       <r>   -2.2340    1.0000 </r>
       <r>   -2.1661    1.0000 </r>
       <r>   -2.0962    1.0000 </r>
       <r>   -1.9874    1.0000 </r>
       <r>    0.6019    0.0000 </r>
       <r>    1.2437    0.0000 </r>
       <r>    2.2486    0.0000 </r>
       <r>    2.5438    0.0000 </r>
       <r>    3.0002    0.0000 </r>
       <r>    3.4828    0.0000 </r>
       <r>    3.5705    0.0000 </r>
       <r>    3.7055    0.0000 </r>
       <r>    3.9236    0.0000 </r>
       <r>    4.0776    0.0000 </r>
       <r>    4.3691    0.0000 </r>
       <r>    4.6328    0.0000 </r>
       <r>    4.7137    0.0000 </r>
       <r>    5.2655    0.0000 </r>
       <r>    5.3588    0.0000 </r>
       <r>    5.3969    0.0000 </r>
       <r>    6.0340    0.0000 </r>
       <r>    6.2267    0.0000 </r>
       <r>    6.5934    0.0000 </r>
       <r>    6.9824    0.0000 </r>
       <r>    7.0884    0.0000 </r>
       <r>    7.1816    0.0000 </r>
      </set>
      <set comment="kpoint 18">
       <r>  -15.6455    1.0000 </r>
       <r>  -15.6455    1.0000 </r>
       <r>  -15.5823    1.0000 </r>
       <r>  -15.5513    1.0000 </r>
       <r>  -15.4845    1.0000 </r>
       <r>  -15.4743    1.0000 </r>
       <r>  -15.4743    1.0000 </r>
       <r>  -15.4386    1.0000 </r>
       <r>  -15.4258    1.0000 </r>
       <r>  -15.3662    1.0000 </r>
       <r>  -12.2516    1.0000 </r>
       <r>  -11.4703    1.0000 </r>
       <r>  -11.3579    1.0000 </r>
       <r>  -11.3535    1.0000 </r>
       <r>   -6.1485    1.0000 </r>
       <r>   -5.9491    1.0000 </r>
       <r>   -4.1216    1.0000 </r>
       <r>   -3.2479    1.0000 </r>
       <r>   -3.2227    1.0000 </r>
       <r>   -3.0311    1.0000 </r>
       <r>   -3.0207    1.0000 </r>
       <r>   -2.5478    1.0000 </r>
       <r>   -2.2339    1.0000 </r>
       <r>   -2.1663    1.0000 </r>
       <r>   -2.0973    1.0000 </r>
       <r>   -1.9871    1.0000 </r>
       <r>    0.6026    0.0000 </r>
       <r>    1.2454    0.0000 </r>
       <r>    2.2502    0.0000 </r>
       <r>    2.5440    0.0000 </r>
       <r>    2.9969    0.0000 </r>
       <r>    3.4841    0.0000 </r>
       <r>    3.5714    0.0000 </r>
       <r>    3.7069    0.0000 </r>
       <r>    3.9231    0.0000 </r>
       <r>    4.0757    0.0000 </r>
       <r>    4.3675    0.0000 </r>
       <r>    4.6354    0.0000 </r>
       <r>    4.7219    0.0000 </r>
       <r>    5.2669    0.0000 </r>
       <r>    5.3394    0.0000 </r>
       <r>    5.3950    0.0000 </r>
       <r>    6.0446    0.0000 </r>
       <r>    6.2214    0.0000 </r>
       <r>    6.6048    0.0000 </r>
       <r>    6.9718    0.0000 </r>
       <r>    7.0162    0.0000 </r>
       <r>    7.0768    0.0000 </r>
      </set>
      <set comment="kpoint 19">
       <r>  -15.6455    1.0000 </r>
       <r>  -15.6455    1.0000 </r>
       <r>  -15.5823    1.0000 </r>
       <r>  -15.5513    1.0000 </r>
       <r>  -15.4845    1.0000 </r>
       <r>  -15.4743    1.0000 </r>
       <r>  -15.4743    1.0000 </r>
       <r>  -15.4386    1.0000 </r>
       <r>  -15.4258    1.0000 </r>
       <r>  -15.3662    1.0000 </r>
       <r>  -12.2515    1.0000 </r>
       <r>  -11.4704    1.0000 </r>
       <r>  -11.3579    1.0000 </r>
       <r>  -11.3537    1.0000 </r>
       <r>   -6.1484    1.0000 </r>
       <r>   -5.9488    1.0000 </r>
       <r>   -4.1223    1.0000 </r>
       <r>   -3.2477    1.0000 </r>
       <r>   -3.2233    1.0000 </r>
       <r>   -3.0311    1.0000 </r>
       <r>   -3.0211    1.0000 </r>
       <r>   -2.5455    1.0000 </r>
       <r>   -2.2334    1.0000 </r>
       <r>   -2.1667    1.0000 </r>
       <r>   -2.1006    1.0000 </r>
       <r>   -1.9861    1.0000 </r>
       <r>    0.6048    0.0000 </r>
       <r>    1.2506    0.0000 </r>
       <r>    2.2551    0.0000 </r>
       <r>    2.5444    0.0000 </r>
       <r>    2.9873    0.0000 </r>
       <r>    3.4879    0.0000 </r>
       <r>    3.5740    0.0000 </r>
       <r>    3.7111    0.0000 </r>
       <r>    3.9219    0.0000 </r>
       <r>    4.0701    0.0000 </r>
       <r>    4.3627    0.0000 </r>
       <r>    4.6432    0.0000 </r>
       <r>    4.7462    0.0000 </r>
       <r>    5.2712    0.0000 </r>
       <r>    5.2791    0.0000 </r>
       <r>    5.3976    0.0000 </r>
       <r>    6.0715    0.0000 </r>
       <r>    6.2057    0.0000 </r>
       <r>    6.6362    0.0000 </r>
       <r>    6.8633    0.0000 </r>
       <r>    6.9558    0.0000 </r>
       <r>    7.0111    0.0000 </r>
      </set>
      <set comment="kpoint 20">
       <r>  -15.6455    1.0000 </r>
       <r>  -15.6455    1.0000 </r>
       <r>  -15.5823    1.0000 </r>
       <r>  -15.5513    1.0000 </r>
       <r>  -15.4845    1.0000 </r>
       <r>  -15.4743    1.0000 </r>
       <r>  -15.4743    1.0000 </r>
       <r>  -15.4386    1.0000 </r>
       <r>  -15.4258    1.0000 </r>
       <r>  -15.3662    1.0000 </r>
       <r>  -12.2514    1.0000 </r>
       <r>  -11.4704    1.0000 </r>
       <r>  -11.3579    1.0000 </r>
       <r>  -11.3539    1.0000 </r>
       <r>   -6.1483    1.0000 </r>
       <r>   -5.9484    1.0000 </r>
       <r>   -4.1234    1.0000 </r>
       <r>   -3.2473    1.0000 </r>
       <r>   -3.2243    1.0000 </r>
       <r>   -3.0312    1.0000 </r>
       <r>   -3.0218    1.0000 </r>
       <r>   -2.5418    1.0000 </r>
       <r>   -2.2326    1.0000 </r>
       <r>   -2.1674    1.0000 </r>
       <r>   -2.1059    1.0000 </r>
       <r>   -1.9845    1.0000 </r>
       <r>    0.6083    0.0000 </r>
       <r>    1.2590    0.0000 </r>
       <r>    2.2630    0.0000 </r>
       <r>    2.5451    0.0000 </r>
       <r>    2.9714    0.0000 </r>
       <r>    3.4944    0.0000 </r>
       <r>    3.5789    0.0000 </r>
       <r>    3.7181    0.0000 </r>
       <r>    3.9199    0.0000 </r>
       <r>    4.0615    0.0000 </r>
       <r>    4.3549    0.0000 </r>
       <r>    4.6563    0.0000 </r>
       <r>    4.7851    0.0000 </r>
       <r>    5.1901    0.0000 </r>
       <r>    5.2783    0.0000 </r>
       <r>    5.4053    0.0000 </r>
       <r>    6.1057    0.0000 </r>
       <r>    6.1802    0.0000 </r>
       <r>    6.6799    0.0000 </r>
       <r>    6.7157    0.0000 </r>
       <r>    6.9181    0.0000 </r>
       <r>    6.9247    0.0000 </r>
      </set>
      <set comment="kpoint 21">
       <r>  -15.6455    1.0000 </r>
       <r>  -15.6455    1.0000 </r>
       <r>  -15.5823    1.0000 </r>
       <r>  -15.5513    1.0000 </r>
       <r>  -15.4845    1.0000 </r>
       <r>  -15.4743    1.0000 </r>
       <r>  -15.4743    1.0000 </r>
       <r>  -15.4386    1.0000 </r>
       <r>  -15.4258    1.0000 </r>
       <r>  -15.3662    1.0000 </r>
       <r>  -12.2512    1.0000 </r>
       <r>  -11.4704    1.0000 </r>
       <r>  -11.3578    1.0000 </r>
       <r>  -11.3541    1.0000 </r>
       <r>   -6.1481    1.0000 </r>
       <r>   -5.9478    1.0000 </r>
       <r>   -4.1248    1.0000 </r>
       <r>   -3.2468    1.0000 </r>
       <r>   -3.2256    1.0000 </r>
       <r>   -3.0313    1.0000 </r>
       <r>   -3.0228    1.0000 </r>
       <r>   -2.5367    1.0000 </r>
       <r>   -2.2316    1.0000 </r>
       <r>   -2.1684    1.0000 </r>
       <r>   -2.1132    1.0000 </r>
       <r>   -1.9825    1.0000 </r>
       <r>    0.6131    0.0000 </r>
       <r>    1.2703    0.0000 </r>
       <r>    2.2741    0.0000 </r>
       <r>    2.5460    0.0000 </r>
       <r>    2.9500    0.0000 </r>
       <r>    3.5039    0.0000 </r>
       <r>    3.5866    0.0000 </r>
       <r>    3.7277    0.0000 </r>
       <r>    3.9173    0.0000 </r>
       <r>    4.0503    0.0000 </r>
       <r>    4.3441    0.0000 </r>
       <r>    4.6745    0.0000 </r>
       <r>    4.8364    0.0000 </r>
       <r>    5.0848    0.0000 </r>
       <r>    5.2878    0.0000 </r>
       <r>    5.4161    0.0000 </r>
       <r>    6.1421    0.0000 </r>
       <r>    6.1460    0.0000 </r>
       <r>    6.5717    0.0000 </r>
       <r>    6.7248    0.0000 </r>
       <r>    6.8017    0.0000 </r>
       <r>    6.8889    0.0000 </r>
      </set>
      <set comment="kpoint 22">
       <r>  -15.6455    1.0000 </r>
       <r>  -15.6455    1.0000 </r>
       <r>  -15.5823    1.0000 </r>
       <r>  -15.5513    1.0000 </r>
       <r>  -15.4845    1.0000 </r>
       <r>  -15.4743    1.0000 </r>
       <r>  -15.4743    1.0000 </r>
       <r>  -15.4386    1.0000 </r>
       <r>  -15.4258    1.0000 </r>
       <r>  -15.3662    1.0000 </r>
       <r>  -12.2510    1.0000 </r>
       <r>  -11.4704    1.0000 </r>
       <r>  -11.3578    1.0000 </r>
       <r>  -11.3545    1.0000 </r>
       <r>   -6.1479    1.0000 </r>
       <r>   -5.9471    1.0000 </r>
       <r>   -4.1266    1.0000 </r>
       <r>   -3.2462    1.0000 </r>
       <r>   -3.2271    1.0000 </r>
       <r>   -3.0315    1.0000 </r>
       <r>   -3.0239    1.0000 </r>
       <r>   -2.5303    1.0000 </r>
       <r>   -2.2302    1.0000 </r>
       <r>   -2.1696    1.0000 </r>
       <r>   -2.1221    1.0000 </r>
       <r>   -1.9800    1.0000 </r>
       <r>    0.6188    0.0000 </r>
       <r>    1.2840    0.0000 </r>
       <r>    2.2881    0.0000 </r>
       <r>    2.5472    0.0000 </r>
       <r>    2.9235    0.0000 </r>
       <r>    3.5166    0.0000 </r>
       <r>    3.5975    0.0000 </r>
       <r>    3.7397    0.0000 </r>
       <r>    3.9140    0.0000 </r>
       <r>    4.0372    0.0000 </r>
       <r>    4.3308    0.0000 </r>
       <r>    4.6981    0.0000 </r>
       <r>    4.8979    0.0000 </r>
       <r>    4.9712    0.0000 </r>
       <r>    5.2995    0.0000 </r>
       <r>    5.4286    0.0000 </r>
       <r>    6.1048    0.0000 </r>
       <r>    6.1801    0.0000 </r>
       <r>    6.4314    0.0000 </r>
       <r>    6.6810    0.0000 </r>
       <r>    6.7604    0.0000 </r>
       <r>    6.8476    0.0000 </r>
      </set>
      <set comment="kpoint 23">
       <r>  -15.6455    1.0000 </r>
       <r>  -15.6455    1.0000 </r>
       <r>  -15.5823    1.0000 </r>
       <r>  -15.5513    1.0000 </r>
       <r>  -15.4845    1.0000 </r>
       <r>  -15.4743    1.0000 </r>
       <r>  -15.4743    1.0000 </r>
       <r>  -15.4386    1.0000 </r>
       <r>  -15.4258    1.0000 </r>
       <r>  -15.3662    1.0000 </r>
       <r>  -12.2508    1.0000 </r>
       <r>  -11.4704    1.0000 </r>
       <r>  -11.3578    1.0000 </r>
       <r>  -11.3549    1.0000 </r>
       <r>   -6.1477    1.0000 </r>
       <r>   -5.9464    1.0000 </r>
       <r>   -4.1286    1.0000 </r>
       <r>   -3.2455    1.0000 </r>
       <r>   -3.2289    1.0000 </r>
       <r>   -3.0317    1.0000 </r>
       <r>   -3.0252    1.0000 </r>
       <r>   -2.5228    1.0000 </r>
       <r>   -2.2286    1.0000 </r>
       <r>   -2.1709    1.0000 </r>
       <r>   -2.1325    1.0000 </r>
       <r>   -1.9772    1.0000 </r>
       <r>    0.6254    0.0000 </r>
       <r>    1.2995    0.0000 </r>
       <r>    2.3050    0.0000 </r>
       <r>    2.5486    0.0000 </r>
       <r>    2.8929    0.0000 </r>
       <r>    3.5330    0.0000 </r>
       <r>    3.6118    0.0000 </r>
       <r>    3.7539    0.0000 </r>
       <r>    3.9104    0.0000 </r>
       <r>    4.0225    0.0000 </r>
       <r>    4.3152    0.0000 </r>
       <r>    4.7269    0.0000 </r>
       <r>    4.8542    0.0000 </r>
       <r>    4.9672    0.0000 </r>
       <r>    5.3130    0.0000 </r>
       <r>    5.4418    0.0000 </r>
       <r>    6.0588    0.0000 </r>
       <r>    6.2209    0.0000 </r>
       <r>    6.2951    0.0000 </r>
       <r>    6.5618    0.0000 </r>
       <r>    6.7823    0.0000 </r>
       <r>    6.8024    0.0000 </r>
      </set>
      <set comment="kpoint 24">
       <r>  -15.6455    1.0000 </r>
       <r>  -15.6455    1.0000 </r>
       <r>  -15.5823    1.0000 </r>
       <r>  -15.5513    1.0000 </r>
       <r>  -15.4845    1.0000 </r>
       <r>  -15.4743    1.0000 </r>
       <r>  -15.4743    1.0000 </r>
       <r>  -15.4386    1.0000 </r>
       <r>  -15.4258    1.0000 </r>
       <r>  -15.3662    1.0000 </r>
       <r>  -12.2506    1.0000 </r>
       <r>  -11.4704    1.0000 </r>
       <r>  -11.3577    1.0000 </r>
       <r>  -11.3553    1.0000 </r>
       <r>   -6.1474    1.0000 </r>
       <r>   -5.9455    1.0000 </r>
       <r>   -4.1307    1.0000 </r>
       <r>   -3.2448    1.0000 </r>
       <r>   -3.2308    1.0000 </r>
       <r>   -3.0319    1.0000 </r>
       <r>   -3.0266    1.0000 </r>
       <r>   -2.5144    1.0000 </r>
       <r>   -2.2269    1.0000 </r>
       <r>   -2.1723    1.0000 </r>
       <r>   -2.1440    1.0000 </r>
       <r>   -1.9743    1.0000 </r>
       <r>    0.6324    0.0000 </r>
       <r>    1.3162    0.0000 </r>
       <r>    2.3245    0.0000 </r>
       <r>    2.5502    0.0000 </r>
       <r>    2.8590    0.0000 </r>
       <r>    3.5534    0.0000 </r>
       <r>    3.6294    0.0000 </r>
       <r>    3.7699    0.0000 </r>
       <r>    3.9064    0.0000 </r>
       <r>    4.0066    0.0000 </r>
       <r>    4.2977    0.0000 </r>
       <r>    4.7370    0.0000 </r>
       <r>    4.7609    0.0000 </r>
       <r>    5.0419    0.0000 </r>
       <r>    5.3278    0.0000 </r>
       <r>    5.4547    0.0000 </r>
       <r>    6.0103    0.0000 </r>
       <r>    6.1633    0.0000 </r>
       <r>    6.2665    0.0000 </r>
       <r>    6.4492    0.0000 </r>
       <r>    6.7574    0.0000 </r>
       <r>    6.7924    0.0000 </r>
      </set>
      <set comment="kpoint 25">
       <r>  -15.6455    1.0000 </r>
       <r>  -15.6455    1.0000 </r>
       <r>  -15.5823    1.0000 </r>
       <r>  -15.5513    1.0000 </r>
       <r>  -15.4845    1.0000 </r>
       <r>  -15.4743    1.0000 </r>
       <r>  -15.4743    1.0000 </r>
       <r>  -15.4386    1.0000 </r>
       <r>  -15.4258    1.0000 </r>
       <r>  -15.3662    1.0000 </r>
       <r>  -12.2503    1.0000 </r>
       <r>  -11.4704    1.0000 </r>
       <r>  -11.3577    1.0000 </r>
       <r>  -11.3557    1.0000 </r>
       <r>   -6.1472    1.0000 </r>
       <r>   -5.9447    1.0000 </r>
       <r>   -4.1328    1.0000 </r>
       <r>   -3.2440    1.0000 </r>
       <r>   -3.2327    1.0000 </r>
       <r>   -3.0322    1.0000 </r>
       <r>   -3.0279    1.0000 </r>
       <r>   -2.5054    1.0000 </r>
       <r>   -2.2250    1.0000 </r>
       <r>   -2.1737    1.0000 </r>
       <r>   -2.1561    1.0000 </r>
[...]
       <r>     1.5131     0.1992    27.9999 </r>
       <r>     1.5975     0.0008    28.0000 </r>
       <r>     1.6818     0.0000    28.0000 </r>
       <r>     1.7662     0.0000    28.0000 </r>
       <r>     1.8506     0.0000    28.0000 </r>
       <r>     1.9349     0.0000    28.0000 </r>
       <r>     2.0193     0.0000    28.0000 </r>
       <r>     2.1037     0.0000    28.0000 </r>
       <r>     2.1881     0.0370    28.0031 </r>
       <r>     2.2724     1.3576    28.1177 </r>
       <r>     2.3568     3.3174    28.3976 </r>
       <r>     2.4412     1.8309    28.5521 </r>
       <r>     2.5256     2.1550    28.7339 </r>
       <r>     2.6099     5.0641    29.1612 </r>
       <r>     2.6943     8.1622    29.8498 </r>
       <r>     2.7787     3.6802    30.1603 </r>
       <r>     2.8631     1.6123    30.2964 </r>
       <r>     2.9474     3.7902    30.6162 </r>
       <r>     3.0318     5.0636    31.0434 </r>
       <r>     3.1162     4.3432    31.4099 </r>
       <r>     3.2006     2.7405    31.6411 </r>
       <r>     3.2849     4.6947    32.0372 </r>
       <r>     3.3693     5.3090    32.4851 </r>
       <r>     3.4537     2.7284    32.7153 </r>
       <r>     3.5381     1.8752    32.8736 </r>
       <r>     3.6224     1.9739    33.0401 </r>
       <r>     3.7068     2.1901    33.2249 </r>
       <r>     3.7912     3.7553    33.5417 </r>
       <r>     3.8755     5.4094    33.9982 </r>
       <r>     3.9599     3.8456    34.3226 </r>
       <r>     4.0443     2.4385    34.5284 </r>
       <r>     4.1287     4.0544    34.8705 </r>
       <r>     4.2130     4.6795    35.2653 </r>
       <r>     4.2974     4.9471    35.6827 </r>
       <r>     4.3818     8.8969    36.4334 </r>
       <r>     4.4662     7.0727    37.0301 </r>
       <r>     4.5505     6.1661    37.5504 </r>
       <r>     4.6349     3.7376    37.8657 </r>
       <r>     4.7193     4.3393    38.2319 </r>
       <r>     4.8037     4.8488    38.6410 </r>
       <r>     4.8880     4.6080    39.0298 </r>
       <r>     4.9724     4.3024    39.3928 </r>
       <r>     5.0568     1.3451    39.5063 </r>
       <r>     5.1412     1.6328    39.6440 </r>
       <r>     5.2255     1.5997    39.7790 </r>
       <r>     5.3099     2.8826    40.0222 </r>
       <r>     5.3943     5.8512    40.5159 </r>
       <r>     5.4787     5.8426    41.0089 </r>
       <r>     5.5630     4.3446    41.3754 </r>
       <r>     5.6474     2.2833    41.5681 </r>
       <r>     5.7318     3.0624    41.8265 </r>
       <r>     5.8161     6.1376    42.3443 </r>
       <r>     5.9005     4.2028    42.6989 </r>
       <r>     5.9849     2.4627    42.9067 </r>
       <r>     6.0693     3.7146    43.2201 </r>
       <r>     6.1536     3.2009    43.4902 </r>
       <r>     6.2380     3.1323    43.7545 </r>
       <r>     6.3224     3.2582    44.0294 </r>
       <r>     6.4068     4.3039    44.3925 </r>
       <r>     6.4911     5.2379    44.8345 </r>
       <r>     6.5755     5.9443    45.3360 </r>
       <r>     6.6599     6.6416    45.8964 </r>
       <r>     6.7443     4.5459    46.2800 </r>
       <r>     6.8286     6.7724    46.8514 </r>
       <r>     6.9130     5.3632    47.3039 </r>
       <r>     6.9974     3.3816    47.5892 </r>
       <r>     7.0818     3.0668    47.8480 </r>
       <r>     7.1661     1.3862    47.9649 </r>
       <r>     7.2505     0.3759    47.9966 </r>
       <r>     7.3349     0.0394    48.0000 </r>
       <r>     7.4193     0.0003    48.0000 </r>
       <r>     7.5036     0.0000    48.0000 </r>
       <r>     7.5880     0.0000    48.0000 </r>
       <r>     7.6724     0.0000    48.0000 </r>
       <r>     7.7568     0.0000    48.0000 </r>
       <r>     7.8411     0.0000    48.0000 </r>
       <r>     7.9255     0.0000    48.0000 </r>
       <r>     8.0099     0.0000    48.0000 </r>
       <r>     8.0942     0.0000    48.0000 </r>
       <r>     8.1786     0.0000    48.0000 </r>
       <r>     8.2630     0.0000    48.0000 </r>
       <r>     8.3474     0.0000    48.0000 </r>
       <r>     8.4317     0.0000    48.0000 </r>
       <r>     8.5161     0.0000    48.0000 </r>
      </set>
      <set comment="spin 2">
       <r>   -16.7961     0.0000     0.0000 </r>
       <r>   -16.7117     0.0000     0.0000 </r>
       <r>   -16.6273     0.0000     0.0000 </r>
       <r>   -16.5430     0.0000     0.0000 </r>
       <r>   -16.4586     0.0000     0.0000 </r>
       <r>   -16.3742     0.0000     0.0000 </r>
       <r>   -16.2898     0.0000     0.0000 </r>
       <r>   -16.2055     0.0000     0.0000 </r>
       <r>   -16.1211     0.0000     0.0000 </r>
       <r>   -16.0367     0.0000     0.0000 </r>
       <r>   -15.9523     0.0000     0.0000 </r>
       <r>   -15.8680     0.0000     0.0000 </r>
       <r>   -15.7836     0.0003     0.0000 </r>
       <r>   -15.6992     0.5954     0.0503 </r>
       <r>   -15.6148    15.0637     1.3212 </r>
       <r>   -15.5305    28.8662     3.7568 </r>
       <r>   -15.4461    47.4582     7.7610 </r>
       <r>   -15.3617    23.8495     9.7733 </r>
       <r>   -15.2773     2.6648     9.9981 </r>
       <r>   -15.1930     0.0221    10.0000 </r>
       <r>   -15.1086     0.0000    10.0000 </r>
       <r>   -15.0242     0.0000    10.0000 </r>
       <r>   -14.9398     0.0000    10.0000 </r>
       <r>   -14.8555     0.0000    10.0000 </r>
       <r>   -14.7711     0.0000    10.0000 </r>
       <r>   -14.6867     0.0000    10.0000 </r>
       <r>   -14.6024     0.0000    10.0000 </r>
       <r>   -14.5180     0.0000    10.0000 </r>
       <r>   -14.4336     0.0000    10.0000 </r>
       <r>   -14.3492     0.0000    10.0000 </r>
       <r>   -14.2649     0.0000    10.0000 </r>
       <r>   -14.1805     0.0000    10.0000 </r>
       <r>   -14.0961     0.0000    10.0000 </r>
       <r>   -14.0117     0.0000    10.0000 </r>
       <r>   -13.9274     0.0000    10.0000 </r>
       <r>   -13.8430     0.0000    10.0000 </r>
       <r>   -13.7586     0.0000    10.0000 </r>
       <r>   -13.6742     0.0000    10.0000 </r>
       <r>   -13.5899     0.0000    10.0000 </r>
       <r>   -13.5055     0.0000    10.0000 </r>
       <r>   -13.4211     0.0000    10.0000 </r>
       <r>   -13.3367     0.0000    10.0000 </r>
       <r>   -13.2524     0.0000    10.0000 </r>
       <r>   -13.1680     0.0000    10.0000 </r>
       <r>   -13.0836     0.0000    10.0000 </r>
       <r>   -12.9992     0.0000    10.0000 </r>
       <r>   -12.9149     0.0000    10.0000 </r>
       <r>   -12.8305     0.0000    10.0000 </r>
       <r>   -12.7461     0.0000    10.0000 </r>
       <r>   -12.6618     0.0000    10.0000 </r>
       <r>   -12.5774     0.0000    10.0000 </r>
       <r>   -12.4930     0.0000    10.0000 </r>
       <r>   -12.4086     0.0000    10.0000 </r>
       <r>   -12.3243     0.0000    10.0000 </r>
       <r>   -12.2399     0.0000    10.0000 </r>
       <r>   -12.1555     0.0000    10.0000 </r>
       <r>   -12.0711     0.1015    10.0086 </r>
       <r>   -11.9868     3.1440    10.2738 </r>
       <r>   -11.9024     2.5895    10.4923 </r>
       <r>   -11.8180     0.7292    10.5539 </r>
       <r>   -11.7336     0.5867    10.6034 </r>
       <r>   -11.6493     2.7579    10.8361 </r>
       <r>   -11.5649     6.0825    11.3493 </r>
       <r>   -11.4805     0.7788    11.4150 </r>
       <r>   -11.3961     0.5001    11.4572 </r>
       <r>   -11.3118     0.5578    11.5042 </r>
       <r>   -11.2274     0.9904    11.5878 </r>
       <r>   -11.1430     3.9976    11.9251 </r>
       <r>   -11.0586     9.6388    12.7384 </r>
       <r>   -10.9743    14.4529    13.9578 </r>
       <r>   -10.8899     0.5000    14.0000 </r>
       <r>   -10.8055     0.0001    14.0000 </r>
       <r>   -10.7212     0.0000    14.0000 </r>
       <r>   -10.6368     0.0000    14.0000 </r>
       <r>   -10.5524     0.0000    14.0000 </r>
       <r>   -10.4680     0.0000    14.0000 </r>
       <r>   -10.3837     0.0000    14.0000 </r>
       <r>   -10.2993     0.0000    14.0000 </r>
       <r>   -10.2149     0.0000    14.0000 </r>
       <r>   -10.1305     0.0000    14.0000 </r>
       <r>   -10.0462     0.0000    14.0000 </r>
       <r>    -9.9618     0.0000    14.0000 </r>
       <r>    -9.8774     0.0000    14.0000 </r>
       <r>    -9.7930     0.0000    14.0000 </r>
       <r>    -9.7087     0.0000    14.0000 </r>
       <r>    -9.6243     0.0000    14.0000 </r>
       <r>    -9.5399     0.0000    14.0000 </r>
       <r>    -9.4555     0.0000    14.0000 </r>
       <r>    -9.3712     0.0000    14.0000 </r>
       <r>    -9.2868     0.0000    14.0000 </r>
       <r>    -9.2024     0.0000    14.0000 </r>
       <r>    -9.1180     0.0000    14.0000 </r>
       <r>    -9.0337     0.0000    14.0000 </r>
       <r>    -8.9493     0.0000    14.0000 </r>
       <r>    -8.8649     0.0000    14.0000 </r>
       <r>    -8.7805     0.0000    14.0000 </r>
       <r>    -8.6962     0.0000    14.0000 </r>
       <r>    -8.6118     0.0000    14.0000 </r>
       <r>    -8.5274     0.0000    14.0000 </r>
       <r>    -8.4431     0.0000    14.0000 </r>
       <r>    -8.3587     0.0000    14.0000 </r>
       <r>    -8.2743     0.0000    14.0000 </r>
       <r>    -8.1899     0.0000    14.0000 </r>
       <r>    -8.1056     0.0000    14.0000 </r>
       <r>    -8.0212     0.0000    14.0000 </r>
       <r>    -7.9368     0.0000    14.0000 </r>
       <r>    -7.8524     0.0000    14.0000 </r>
       <r>    -7.7681     0.0000    14.0000 </r>
       <r>    -7.6837     0.0000    14.0000 </r>
       <r>    -7.5993     0.0000    14.0000 </r>
       <r>    -7.5149     0.0000    14.0000 </r>
       <r>    -7.4306     0.0000    14.0000 </r>
       <r>    -7.3462     0.0000    14.0000 </r>
       <r>    -7.2618     0.0000    14.0000 </r>
       <r>    -7.1774     0.0000    14.0000 </r>
       <r>    -7.0931     0.0000    14.0000 </r>
       <r>    -7.0087     0.0000    14.0000 </r>
       <r>    -6.9243     0.0000    14.0000 </r>
       <r>    -6.8399     0.0000    14.0000 </r>
       <r>    -6.7556     0.0000    14.0000 </r>
       <r>    -6.6712     0.0000    14.0000 </r>
       <r>    -6.5868     0.0000    14.0000 </r>
       <r>    -6.5025     0.0000    14.0000 </r>
       <r>    -6.4181     0.0000    14.0000 </r>
       <r>    -6.3337     0.0000    14.0000 </r>
       <r>    -6.2493     0.0001    14.0000 </r>
       <r>    -6.1650     0.2209    14.0186 </r>
       <r>    -6.0806     4.1593    14.3696 </r>
       <r>    -5.9962     4.9971    14.7912 </r>
       <r>    -5.9118     7.5156    15.4253 </r>
       <r>    -5.8275     4.9575    15.8436 </r>
       <r>    -5.7431     1.8390    15.9988 </r>
       <r>    -5.6587     0.0144    16.0000 </r>
       <r>    -5.5743     0.0000    16.0000 </r>
       <r>    -5.4900     0.0000    16.0000 </r>
       <r>    -5.4056     0.0000    16.0000 </r>
       <r>    -5.3212     0.0000    16.0000 </r>
       <r>    -5.2368     0.0000    16.0000 </r>
       <r>    -5.1525     0.0000    16.0000 </r>
       <r>    -5.0681     0.0000    16.0000 </r>
       <r>    -4.9837     0.0000    16.0000 </r>
       <r>    -4.8993     0.0000    16.0000 </r>
       <r>    -4.8150     0.0000    16.0000 </r>
       <r>    -4.7306     0.0000    16.0000 </r>
       <r>    -4.6462     0.0000    16.0000 </r>
       <r>    -4.5619     0.0000    16.0000 </r>
       <r>    -4.4775     0.0000    16.0000 </r>
       <r>    -4.3931     0.0000    16.0000 </r>
       <r>    -4.3087     0.0000    16.0000 </r>
       <r>    -4.2244     0.0000    16.0000 </r>
       <r>    -4.1400     0.0003    16.0000 </r>
       <r>    -4.0556     0.2902    16.0245 </r>
       <r>    -3.9712     3.3106    16.3038 </r>
       <r>    -3.8869     1.4890    16.4295 </r>
       <r>    -3.8025     0.3638    16.4602 </r>
       <r>    -3.7181     0.2885    16.4845 </r>
       <r>    -3.6337     0.3092    16.5106 </r>
       <r>    -3.5494     3.8343    16.8341 </r>
       <r>    -3.4650     6.7645    17.4049 </r>
       <r>    -3.3806     1.7131    17.5494 </r>
       <r>    -3.2962     1.1668    17.6478 </r>
       <r>    -3.2119     1.0721    17.7383 </r>
       <r>    -3.1275     1.8655    17.8957 </r>
       <r>    -3.0431     7.2169    18.5046 </r>
       <r>    -2.9587     2.0946    18.6814 </r>
       <r>    -2.8744     5.5873    19.1528 </r>
       <r>    -2.7900     2.8112    19.3900 </r>
       <r>    -2.7056     6.4330    19.9327 </r>
       <r>    -2.6212     3.6331    20.2393 </r>
       <r>    -2.5369     1.2756    20.3469 </r>
       <r>    -2.4525     1.5773    20.4800 </r>
       <r>    -2.3681     5.9564    20.9826 </r>
       <r>    -2.2838     5.7948    21.4715 </r>
       <r>    -2.1994     0.4348    21.5082 </r>
       <r>    -2.1150     0.7600    21.5723 </r>
       <r>    -2.0306     2.6142    21.7929 </r>
       <r>    -1.9463     5.6508    22.2696 </r>
       <r>    -1.8619     4.9290    22.6855 </r>
       <r>    -1.7775     6.1619    23.2054 </r>
       <r>    -1.6931     9.3950    23.9981 </r>
       <r>    -1.6088     5.8594    24.4925 </r>
       <r>    -1.5244     6.9125    25.0757 </r>
       <r>    -1.4400     5.9704    25.5795 </r>
       <r>    -1.3556     3.9602    25.9136 </r>
       <r>    -1.2713     1.0165    25.9994 </r>
       <r>    -1.1869     0.0072    26.0000 </r>
       <r>    -1.1025     0.0000    26.0000 </r>
       <r>    -1.0181     0.0000    26.0000 </r>
       <r>    -0.9338     0.0000    26.0000 </r>
       <r>    -0.8494     0.0000    26.0000 </r>
       <r>    -0.7650     0.0000    26.0000 </r>
       <r>    -0.6806     0.0000    26.0000 </r>
       <r>    -0.5963     0.0000    26.0000 </r>
       <r>    -0.5119     0.0000    26.0000 </r>
       <r>    -0.4275     0.0000    26.0000 </r>
       <r>    -0.3432     0.0000    26.0000 </r>
       <r>    -0.2588     0.0000    26.0000 </r>
       <r>    -0.1744     0.0000    26.0000 </r>
       <r>    -0.0900     0.0000    26.0000 </r>
       <r>    -0.0057     0.0000    26.0000 </r>
       <r>     0.0787     0.0000    26.0000 </r>
       <r>     0.1631     0.0000    26.0000 </r>
       <r>     0.2475     0.0000    26.0000 </r>
       <r>     0.3318     0.0000    26.0000 </r>
       <r>     0.4162     0.0000    26.0000 </r>
       <r>     0.5006     0.0000    26.0000 </r>
       <r>     0.5850     0.0067    26.0006 </r>
       <r>     0.6693     0.7814    26.0665 </r>
       <r>     0.7537     3.7652    26.3842 </r>
       <r>     0.8381     5.2345    26.8258 </r>
       <r>     0.9225     4.5738    27.2118 </r>
       <r>     1.0068     2.2017    27.3975 </r>
       <r>     1.0912     1.1203    27.4920 </r>
       <r>     1.1756     1.1879    27.5923 </r>
       <r>     1.2600     0.8971    27.6680 </r>
       <r>     1.3443     0.8723    27.7416 </r>
       <r>     1.4287     1.3123    27.8523 </r>
       <r>     1.5131     0.9440    27.9319 </r>
       <r>     1.5975     0.7645    27.9964 </r>
       <r>     1.6818     0.0422    28.0000 </r>
       <r>     1.7662     0.0000    28.0000 </r>
       <r>     1.8506     0.0000    28.0000 </r>
       <r>     1.9349     0.0000    28.0000 </r>
       <r>     2.0193     0.0000    28.0000 </r>
       <r>     2.1037     0.0000    28.0000 </r>
       <r>     2.1881     0.0000    28.0000 </r>
       <r>     2.2724     0.0004    28.0000 </r>
       <r>     2.3568     0.1925    28.0163 </r>
       <r>     2.4412     2.2552    28.2066 </r>
       <r>     2.5256     3.1265    28.4704 </r>
       <r>     2.6099     1.9578    28.6355 </r>
       <r>     2.6943     3.9402    28.9680 </r>
       <r>     2.7787    10.6317    29.8650 </r>
       <r>     2.8631     3.5349    30.1633 </r>
       <r>     2.9474     1.7858    30.3140 </r>
       <r>     3.0318     4.1640    30.6653 </r>
       <r>     3.1162     3.8008    30.9860 </r>
       <r>     3.2006     4.4231    31.3592 </r>
       <r>     3.2849     2.5667    31.5757 </r>
       <r>     3.3693     3.1698    31.8432 </r>
       <r>     3.4537     4.8746    32.2545 </r>
       <r>     3.5381     3.6723    32.5643 </r>
       <r>     3.6224     2.3975    32.7666 </r>
       <r>     3.7068     2.2857    32.9595 </r>
       <r>     3.7912     2.7627    33.1926 </r>
       <r>     3.8755     3.8857    33.5204 </r>
       <r>     3.9599     4.9310    33.9365 </r>
       <r>     4.0443     3.4683    34.2291 </r>
       <r>     4.1287     2.3910    34.4308 </r>
       <r>     4.2130     4.1220    34.7786 </r>
       <r>     4.2974     5.0535    35.2050 </r>
       <r>     4.3818     4.0495    35.5467 </r>
       <r>     4.4662     5.0991    35.9769 </r>
       <r>     4.5505     8.6859    36.7098 </r>
       <r>     4.6349     6.6303    37.2692 </r>
       <r>     4.7193     4.2915    37.6313 </r>
       <r>     4.8037     2.8759    37.8740 </r>
       <r>     4.8880     4.3483    38.2409 </r>
       <r>     4.9724     4.1999    38.5952 </r>
       <r>     5.0568     3.5433    38.8942 </r>
       <r>     5.1412     4.7655    39.2963 </r>
       <r>     5.2255     2.6668    39.5213 </r>
       <r>     5.3099     1.5106    39.6487 </r>
       <r>     5.3943     2.2248    39.8364 </r>
       <r>     5.4787     4.5459    40.2200 </r>
       <r>     5.5630     5.0281    40.6442 </r>
       <r>     5.6474     4.0999    40.9902 </r>
       <r>     5.7318     5.0790    41.4187 </r>
       <r>     5.8161     2.6028    41.6383 </r>
       <r>     5.9005     4.1223    41.9861 </r>
       <r>     5.9849     5.6156    42.4599 </r>
       <r>     6.0693     3.3032    42.7386 </r>
       <r>     6.1536     2.5627    42.9549 </r>
       <r>     6.2380     3.2998    43.2333 </r>
       <r>     6.3224     3.9174    43.5638 </r>
       <r>     6.4068     2.5214    43.7765 </r>
       <r>     6.4911     3.0075    44.0303 </r>
       <r>     6.5755     3.4832    44.3242 </r>
       <r>     6.6599     6.3911    44.8634 </r>
       <r>     6.7443     6.6820    45.4272 </r>
       <r>     6.8286     6.5740    45.9819 </r>
       <r>     6.9130     5.1812    46.4191 </r>
       <r>     6.9974     7.1812    47.0250 </r>
       <r>     7.0818     4.7691    47.4273 </r>
       <r>     7.1661     3.1714    47.6949 </r>
       <r>     7.2505     2.0922    47.8715 </r>
       <r>     7.3349     1.2993    47.9811 </r>
       <r>     7.4193     0.2182    47.9995 </r>
       <r>     7.5036     0.0060    48.0000 </r>
       <r>     7.5880     0.0000    48.0000 </r>
       <r>     7.6724     0.0000    48.0000 </r>
       <r>     7.7568     0.0000    48.0000 </r>
       <r>     7.8411     0.0000    48.0000 </r>
       <r>     7.9255     0.0000    48.0000 </r>
       <r>     8.0099     0.0000    48.0000 </r>
       <r>     8.0942     0.0000    48.0000 </r>
       <r>     8.1786     0.0000    48.0000 </r>
       <r>     8.2630     0.0000    48.0000 </r>
       <r>     8.3474     0.0000    48.0000 </r>
       <r>     8.4317     0.0000    48.0000 </r>
       <r>     8.5161     0.0000    48.0000 </r>
      </set>
     </set>
    </array>
   </total>
  </dos>
 </calculation>
 <structure name="finalpos" >
  <crystal>
   <varray name="basis" >
    <v>       8.54774287       0.00000000       0.00000000 </v>
    <v>       0.00000000       8.54774287       0.00000000 </v>
    <v>       0.00000000       0.00000000       7.12734328 </v>
   </varray>
   <i name="volume">    520.75155532 </i>
   <varray name="rec_basis" >
    <v>       0.11698995       0.00000000       0.00000000 </v>
    <v>       0.00000000       0.11698995       0.00000000 </v>
    <v>       0.00000000       0.00000000       0.14030473 </v>
   </varray>
  </crystal>
  <varray name="positions" >
   <v>       0.50000000       0.50000000       0.25000000 </v>
   <v>       0.50000000       0.50000000       0.75000000 </v>
   <v>       0.68110312       0.68110311       0.00000000 </v>
   <v>       0.31889689       0.31889689       0.00000000 </v>
   <v>       0.31889689       0.68110311       0.50000000 </v>
   <v>       0.68110312       0.31889689       0.50000000 </v>
  </varray>
 </structure>
</modeling>
