<?xml version="1.0" encoding="ISO-8859-1"?>
<modeling>
 <generator>
  <i name="program" type="string">vasp </i>
  <i name="version" type="string">5.4.4.18Apr17-6-g9f103f2a35  </i>
  <i name="subversion" type="string">(build May 25 2018 14:11:39) complex            parallel </i>
  <i name="platform" type="string">LinuxIFC </i>
  <i name="date" type="string">2018 11 08 </i>
  <i name="time" type="string">16:06:39 </i>
 </generator>
 <incar>
  <i type="string" name="SYSTEM"> InTe wire</i>
  <i type="string" name="PREC">accurate</i>
  <i type="string" name="ALGO"> Fast</i>
  <i type="logical" name="ADDGRID"> T  </i>
  <i type="int" name="ISPIN">     2</i>
  <i type="int" name="IBRION">    -1</i>
  <i name="EDIFF">      0.00001000</i>
  <i name="ENCUT">    520.00000000</i>
  <i type="logical" name="LREAL"> F  </i>
  <i type="int" name="ISMEAR">     0</i>
  <i name="SIGMA">      0.05000000</i>
  <i type="int" name="NWRITE">     1</i>
  <i type="logical" name="LWAVE"> T  </i>
  <i type="logical" name="LCHARG"> T  </i>
  <i type="int" name="LORBIT">    11</i>
  <v type="int" name="KPOINT_BSE">    -1     0     0     0</v>
 </incar>
 <structure name="primitive_cell" >
  <crystal>
   <varray name="basis" >
    <v>       8.54774287       0.00000000       0.00000000 </v>
    <v>       0.00000000       8.54774287       0.00000000 </v>
    <v>       0.00000000       0.00000000       7.12734328 </v>
   </varray>
   <i name="volume">    520.75155532 </i>
   <varray name="rec_basis" >
    <v>       0.11698995       0.00000000       0.00000000 </v>
    <v>       0.00000000       0.11698995       0.00000000 </v>
    <v>       0.00000000       0.00000000       0.14030473 </v>
   </varray>
  </crystal>
  <varray name="positions" >
   <v>      -0.50000000      -0.50000000       0.25000000 </v>
   <v>       0.31889689       0.31889689       0.00000000 </v>
   <v>       0.31889689      -0.31889689      -0.50000000 </v>
   <v>      -0.31889688      -0.31889689       0.00000000 </v>
   <v>      -0.31889688       0.31889689      -0.50000000 </v>
   <v>      -0.50000000      -0.50000000      -0.25000000 </v>
  </varray>
 </structure>
 <varray name="primitive_index" >
  <v type="int" >        1 </v>
  <v type="int" >        4 </v>
  <v type="int" >        5 </v>
  <v type="int" >        3 </v>
  <v type="int" >        6 </v>
  <v type="int" >        2 </v>
 </varray>
 <kpoints>
  <generation param="Gamma">
   <v type="int" name="divisions">       1        1       16 </v>
   <v name="usershift">      0.00000000       0.00000000       0.00000000 </v>
   <v name="genvec1">      1.00000000       0.00000000       0.00000000 </v>
   <v name="genvec2">      0.00000000       1.00000000       0.00000000 </v>
   <v name="genvec3">      0.00000000       0.00000000       0.06250000 </v>
   <v name="shift">      0.00000000       0.00000000       0.00000000 </v>
  </generation>
  <varray name="kpointlist" >
   <v>       0.00000000       0.00000000       0.00000000 </v>
   <v>       0.00000000       0.00000000       0.06250000 </v>
   <v>       0.00000000       0.00000000       0.12500000 </v>
   <v>       0.00000000       0.00000000       0.18750000 </v>
   <v>       0.00000000       0.00000000       0.25000000 </v>
   <v>       0.00000000       0.00000000       0.31250000 </v>
   <v>       0.00000000       0.00000000       0.37500000 </v>
   <v>       0.00000000       0.00000000       0.43750000 </v>
   <v>       0.00000000       0.00000000       0.50000000 </v>
  </varray>
  <varray name="weights" >
   <v>       0.06250000 </v>
   <v>       0.12500000 </v>
   <v>       0.12500000 </v>
   <v>       0.12500000 </v>
   <v>       0.12500000 </v>
   <v>       0.12500000 </v>
   <v>       0.12500000 </v>
   <v>       0.12500000 </v>
   <v>       0.06250000 </v>
  </varray>
 </kpoints>
 <parameters>
  <separator name="general" >
   <i type="string" name="SYSTEM">InTe wire</i>
   <i type="logical" name="LCOMPAT"> F  </i>
  </separator>
  <separator name="electronic" >
   <i type="string" name="PREC">accura</i>
   <i name="ENMAX">    520.00000000</i>
   <i name="ENAUG">    449.70400000</i>
   <i name="EDIFF">      0.00001000</i>
   <i type="int" name="IALGO">    68</i>
   <i type="int" name="IWAVPR">    10</i>
   <i type="int" name="NBANDS">    48</i>
   <i name="NELECT">     50.00000000</i>
   <i type="int" name="TURBO">     0</i>
   <i type="int" name="IRESTART">     0</i>
   <i type="int" name="NREBOOT">     0</i>
   <i type="int" name="NMIN">     0</i>
   <i name="EREF">      0.00000000</i>
   <separator name="electronic smearing" >
    <i type="int" name="ISMEAR">     0</i>
    <i name="SIGMA">      0.05000000</i>
    <i name="KSPACING">      0.50000000</i>
    <i type="logical" name="KGAMMA"> T  </i>
   </separator>
   <separator name="electronic projectors" >
    <i type="logical" name="LREAL"> F  </i>
    <v name="ROPT">      0.00000000      0.00000000</v>
    <i type="int" name="LMAXPAW">  -100</i>
    <i type="int" name="LMAXMIX">     2</i>
    <i type="logical" name="NLSPLINE"> F  </i>
   </separator>
   <separator name="electronic startup" >
    <i type="int" name="ISTART">     0</i>
    <i type="int" name="ICHARG">     2</i>
    <i type="int" name="INIWAV">     1</i>
   </separator>
   <separator name="electronic spin" >
    <i type="int" name="ISPIN">     2</i>
    <i type="logical" name="LNONCOLLINEAR"> F  </i>
    <v name="MAGMOM">      1.00000000      1.00000000      1.00000000      1.00000000      1.00000000      1.00000000</v>
    <i name="NUPDOWN">     -1.00000000</i>
    <i type="logical" name="LSORBIT"> F  </i>
    <v name="SAXIS">      0.00000000      0.00000000      1.00000000</v>
    <i type="logical" name="LSPIRAL"> F  </i>
    <v name="QSPIRAL">      0.00000000      0.00000000      0.00000000</v>
    <i type="logical" name="LZEROZ"> F  </i>
   </separator>
   <separator name="electronic exchange-correlation" >
    <i type="logical" name="LASPH"> F  </i>
    <i type="logical" name="LMETAGGA"> F  </i>
   </separator>
   <separator name="electronic convergence" >
    <i type="int" name="NELM">    60</i>
    <i type="int" name="NELMDL">     0</i>
    <i type="int" name="NELMIN">     2</i>
    <i name="ENINI">    520.00000000</i>
    <separator name="electronic convergence detail" >
     <i type="logical" name="LDIAG"> T  </i>
     <i type="logical" name="LSUBROT"> F  </i>
     <i name="WEIMIN">      0.00000000</i>
     <i name="EBREAK">      0.00000005</i>
     <i name="DEPER">      0.30000000</i>
     <i type="int" name="NRMM">     4</i>
     <i name="TIME">      0.40000000</i>
    </separator>
   </separator>
   <separator name="electronic mixer" >
    <i name="AMIX">      0.40000000</i>
    <i name="BMIX">      1.00000000</i>
    <i name="AMIN">      0.10000000</i>
    <i name="AMIX_MAG">      1.60000000</i>
    <i name="BMIX_MAG">      1.00000000</i>
    <separator name="electronic mixer details" >
     <i type="int" name="IMIX">     4</i>
     <i type="logical" name="MIXFIRST"> F  </i>
     <i type="int" name="MAXMIX">   -45</i>
     <i name="WC">    100.00000000</i>
     <i type="int" name="INIMIX">     1</i>
     <i type="int" name="MIXPRE">     1</i>
     <i type="int" name="MREMOVE">     5</i>
    </separator>
   </separator>
   <separator name="electronic dipolcorrection" >
    <i type="logical" name="LDIPOL"> F  </i>
    <i type="logical" name="LMONO"> F  </i>
    <i type="int" name="IDIPOL">     0</i>
    <i name="EPSILON">      1.00000000</i>
    <v name="DIPOL">   -100.00000000   -100.00000000   -100.00000000</v>
    <i name="EFIELD">      0.00000000</i>
   </separator>
  </separator>
  <separator name="grids" >
   <i type="int" name="NGX">    64</i>
   <i type="int" name="NGY">    64</i>
   <i type="int" name="NGZ">    54</i>
   <i type="int" name="NGXF">   128</i>
   <i type="int" name="NGYF">   128</i>
   <i type="int" name="NGZF">   108</i>
   <i type="logical" name="ADDGRID"> T  </i>
  </separator>
  <separator name="ionic" >
   <i type="int" name="NSW">     0</i>
   <i type="int" name="IBRION">    -1</i>
   <i type="int" name="MDALGO">     0</i>
   <i type="int" name="ISIF">     2</i>
   <i name="PSTRESS">      0.00000000</i>
   <i name="EDIFFG">      0.00010000</i>
   <i type="int" name="NFREE">     0</i>
   <i name="POTIM">      0.50000000</i>
   <i name="SMASS">     -3.00000000</i>
   <i name="SCALEE">      1.00000000</i>
  </separator>
  <separator name="ionic md" >
   <i name="TEBEG">      0.00010000</i>
   <i name="TEEND">      0.00010000</i>
   <i type="int" name="NBLOCK">     1</i>
   <i type="int" name="KBLOCK">     1</i>
   <i type="int" name="NPACO">   256</i>
   <i name="APACO">     16.00000000</i>
  </separator>
  <separator name="symmetry" >
   <i type="int" name="ISYM">     2</i>
   <i name="SYMPREC">      0.00001000</i>
  </separator>
  <separator name="dos" >
   <i type="int" name="LORBIT">    11</i>
   <v name="RWIGS">     -1.00000000     -1.00000000</v>
   <i type="int" name="NEDOS">   301</i>
   <i name="EMIN">     10.00000000</i>
   <i name="EMAX">    -10.00000000</i>
   <i name="EFERMI">      0.00000000</i>
  </separator>
  <separator name="writing" >
   <i type="int" name="NWRITE">     1</i>
   <i type="logical" name="LWAVE"> T  </i>
   <i type="logical" name="LDOWNSAMPLE"> F  </i>
   <i type="logical" name="LCHARG"> T  </i>
   <i type="logical" name="LPARD"> F  </i>
   <i type="logical" name="LVTOT"> F  </i>
   <i type="logical" name="LVHAR"> F  </i>
   <i type="logical" name="LELF"> F  </i>
   <i type="logical" name="LOPTICS"> F  </i>
   <v name="STM">      0.00000000      0.00000000      0.00000000      0.00000000      0.00000000      0.00000000      0.00000000</v>
  </separator>
  <separator name="performance" >
   <i type="int" name="NPAR">    16</i>
   <i type="int" name="NSIM">     4</i>
   <i type="int" name="NBLK">    -1</i>
   <i type="logical" name="LPLANE"> T  </i>
   <i type="logical" name="LSCALAPACK"> T  </i>
   <i type="logical" name="LSCAAWARE"> F  </i>
   <i type="logical" name="LSCALU"> F  </i>
   <i type="logical" name="LASYNC"> F  </i>
   <i type="logical" name="LORBITALREAL"> F  </i>
  </separator>
  <separator name="miscellaneous" >
   <i type="int" name="IDIOT">     3</i>
   <i type="int" name="ISPECIAL">     0</i>
   <i type="logical" name="LMUSIC"> F  </i>
   <v name="POMASS">    114.82000000    127.60000000</v>
   <v name="DARWINR">      0.00000000      0.00000000</v>
   <v name="DARWINV">      1.00000000      1.00000000</v>
   <i type="logical" name="LCORR"> T  </i>
  </separator>
  <i type="logical" name="GGA_COMPAT"> T  </i>
  <i type="logical" name="LBERRY"> F  </i>
  <i type="int" name="ICORELEVEL">     0</i>
  <i type="logical" name="LDAU"> F  </i>
  <i type="int" name="I_CONSTRAINED_M">     0</i>
  <separator name="electronic exchange-correlation" >
   <i type="string" name="GGA">--</i>
   <i type="int" name="VOSKOWN">     0</i>
   <i type="logical" name="LHFCALC"> F  </i>
   <i type="string" name="PRECFOCK"></i>
   <i type="logical" name="LSYMGRAD"> F  </i>
   <i type="logical" name="LHFONE"> F  </i>
   <i type="logical" name="LRHFCALC"> F  </i>
   <i type="logical" name="LTHOMAS"> F  </i>
   <i type="logical" name="LMODELHF"> F  </i>
   <i name="ENCUT4O">     -1.00000000</i>
   <i type="int" name="EXXOEP">     0</i>
   <i type="int" name="FOURORBIT">     0</i>
   <i name="AEXX">      0.00000000</i>
   <i name="HFALPHA">      0.00000000</i>
   <i name="MCALPHA">      0.00000000</i>
   <i name="ALDAX">      1.00000000</i>
   <i name="AGGAX">      1.00000000</i>
   <i name="ALDAC">      1.00000000</i>
   <i name="AGGAC">      1.00000000</i>
   <i type="int" name="NKREDX">     1</i>
   <i type="int" name="NKREDY">     1</i>
   <i type="int" name="NKREDZ">     1</i>
   <i type="logical" name="SHIFTRED"> F  </i>
   <i type="logical" name="ODDONLY"> F  </i>
   <i type="logical" name="EVENONLY"> F  </i>
   <i type="int" name="LMAXFOCK">     0</i>
   <i type="int" name="NMAXFOCKAE">     0</i>
   <i type="logical" name="LFOCKAEDFT"> F  </i>
   <i name="HFSCREEN">      0.00000000</i>
   <i name="HFSCREENC">      0.00000000</i>
   <i type="int" name="NBANDSGWLOW">     0</i>
  </separator>
  <separator name="vdW DFT" >
   <i type="logical" name="LUSE_VDW"> F  </i>
   <i name="Zab_VDW">     -0.84910000</i>
   <i name="PARAM1">      0.12340000</i>
   <i name="PARAM2">      1.00000000</i>
   <i name="PARAM3">      0.00000000</i>
  </separator>
  <separator name="model GW" >
   <i type="int" name="MODEL_GW">     0</i>
   <i name="MODEL_EPS0">     52.07515553</i>
   <i name="MODEL_ALPHA">      1.00000000</i>
  </separator>
  <separator name="linear response parameters" >
   <i type="logical" name="LEPSILON"> F  </i>
   <i type="logical" name="LRPA"> F  </i>
   <i type="logical" name="LNABLA"> F  </i>
   <i type="logical" name="LVEL"> F  </i>
   <i type="int" name="KINTER">     0</i>
   <i name="CSHIFT">      0.10000000</i>
   <i name="OMEGAMAX">     -1.00000000</i>
   <i name="DEG_THRESHOLD">      0.00200000</i>
   <i name="RTIME">     -0.10000000</i>
   <i name="WPLASMAI">      0.00000000</i>
   <v name="DFIELD">      0.00000000      0.00000000      0.00000000</v>
   <v name="WPLASMA">      0.00000000      0.00000000      0.00000000      0.00000000      0.00000000      0.00000000      0.00000000      0.00000000      0.00000000</v>
  </separator>
  <separator name="orbital magnetization" >
   <i type="logical" name="NUCIND"> F  </i>
   <v name="MAGPOS">      0.00000000      0.00000000      0.00000000</v>
   <i type="logical" name="LNICSALL"> T  </i>
   <i type="logical" name="ORBITALMAG"> F  </i>
   <i type="logical" name="LMAGBLOCH"> F  </i>
   <i type="logical" name="LCHIMAG"> F  </i>
   <i type="logical" name="LGAUGE"> T  </i>
   <i type="int" name="MAGATOM">     0</i>
   <v name="MAGDIPOL">      0.00000000      0.00000000      0.00000000</v>
   <v name="AVECCONST">      0.00000000      0.00000000      0.00000000</v>
  </separator>
  <separator name="response functions" >
   <i type="logical" name="LADDER"> F  </i>
   <i type="logical" name="LRPAFORCE"> F  </i>
   <i type="logical" name="LFXC"> F  </i>
   <i type="logical" name="LHARTREE"> T  </i>
   <i type="int" name="IBSE">     0</i>
   <v type="int" name="KPOINT">    -1     0     0     0</v>
   <i type="logical" name="LTCTE"> F  </i>
   <i type="logical" name="LTETE"> F  </i>
   <i type="logical" name="LTRIPLET"> F  </i>
   <i type="logical" name="LFXCEPS"> F  </i>
   <i type="logical" name="LFXHEG"> F  </i>
   <i type="int" name="NATURALO">     2</i>
   <i type="logical" name="L2ORDER"> F  </i>
   <i type="logical" name="LMP2LT"> F  </i>
   <i type="logical" name="LUSEW"> F  </i>
   <i name="ENCUTGW">     -2.00000000</i>
   <i name="ENCUTGWSOFT">     -2.00000000</i>
   <i name="ENCUTLF">     -1.00000000</i>
   <i type="int" name="LMAXMP2">    -1</i>
   <i name="SCISSOR">      0.00000000</i>
   <i type="int" name="NOMEGA">     0</i>
   <i type="int" name="NOMEGAR">     0</i>
   <i type="int" name="NBANDSGW">    -1</i>
   <i type="int" name="NBANDSO">    -1</i>
   <i type="int" name="NBANDSV">    -1</i>
   <i type="int" name="NELM">     1</i>
   <i type="int" name="NELMHF">     1</i>
   <i type="int" name="DIM">     3</i>
   <i type="int" name="ANTIRES">     0</i>
   <i name="OMEGAMAX">    -30.00000000</i>
   <i name="OMEGAMIN">    -30.00000000</i>
   <i name="OMEGATL">   -200.00000000</i>
   <i type="int" name="OMEGAGRID">   140</i>
   <i name="CSHIFT">     -0.10000000</i>
   <i type="logical" name="SELFENERGY"> F  </i>
   <i type="logical" name="LSPECTRAL"> F  </i>
   <i type="logical" name="LSPECTRALGW"> F  </i>
   <i type="logical" name="LSINGLES"> F  </i>
   <i type="logical" name="LFERMIGW"> F  </i>
   <i type="logical" name="ODDONLYGW"> F  </i>
   <i type="logical" name="EVENONLYGW"> F  </i>
   <i type="int" name="NKREDLFX">     1</i>
   <i type="int" name="NKREDLFY">     1</i>
   <i type="int" name="NKREDLFZ">     1</i>
   <i type="int" name="MAXMEM">  2800</i>
   <i type="int" name="TELESCOPE">     0</i>
   <i type="int" name="TAUPAR">     1</i>
   <i type="int" name="OMEGAPAR">    -1</i>
   <i name="LAMBDA">      1.00000000</i>
  </separator>
  <separator name="External order field" >
   <i name="OFIELD_KAPPA">      0.00000000</i>
   <v name="OFIELD_K">      0.00000000      0.00000000      0.00000000</v>
   <i name="OFIELD_Q6_NEAR">      0.00000000</i>
   <i name="OFIELD_Q6_FAR">      0.00000000</i>
   <i name="OFIELD_A">      0.00000000</i>
  </separator>
 </parameters>
 <atominfo>
  <atoms>       6 </atoms>
  <types>       2 </types>
  <array name="atoms" >
   <dimension dim="1">ion</dimension>
   <field type="string">element</field>
   <field type="int">atomtype</field>
   <set>
    <rc><c>In</c><c>   1</c></rc>
    <rc><c>In</c><c>   1</c></rc>
    <rc><c>Te</c><c>   2</c></rc>
    <rc><c>Te</c><c>   2</c></rc>
    <rc><c>Te</c><c>   2</c></rc>
    <rc><c>Te</c><c>   2</c></rc>
   </set>
  </array>
  <array name="atomtypes" >
   <dimension dim="1">type</dimension>
   <field type="int">atomspertype</field>
   <field type="string">element</field>
   <field>mass</field>
   <field>valence</field>
   <field type="string">pseudopotential</field>
   <set>
    <rc><c>   2</c><c>In</c><c>    114.82000000</c><c>     13.00000000</c><c>  PAW_PBE In_d 06Sep2000                </c></rc>
    <rc><c>   4</c><c>Te</c><c>    127.60000000</c><c>      6.00000000</c><c>  PAW_PBE Te 08Apr2002                  </c></rc>
   </set>
  </array>
 </atominfo>
 <structure name="initialpos" >
  <crystal>
   <varray name="basis" >
    <v>       8.54774287       0.00000000       0.00000000 </v>
    <v>       0.00000000       8.54774287       0.00000000 </v>
    <v>       0.00000000       0.00000000       7.12734328 </v>
   </varray>
   <i name="volume">    520.75155532 </i>
   <varray name="rec_basis" >
    <v>       0.11698995       0.00000000       0.00000000 </v>
    <v>       0.00000000       0.11698995       0.00000000 </v>
    <v>       0.00000000       0.00000000       0.14030473 </v>
   </varray>
  </crystal>
  <varray name="positions" >
   <v>       0.50000000       0.50000000       0.25000000 </v>
   <v>       0.50000000       0.50000000       0.75000000 </v>
   <v>       0.68110312       0.68110311       0.00000000 </v>
   <v>       0.31889689       0.31889689       0.00000000 </v>
   <v>       0.31889689       0.68110311       0.50000000 </v>
   <v>       0.68110312       0.31889689       0.50000000 </v>
  </varray>
 </structure>
 <calculation>
  <scstep>
   <time name="dav">    1.01    1.02</time>
   <time name="total">    1.11    1.13</time>
   <energy>
    <i name="alphaZ">     15.22038120 </i>
    <i name="ewald">   -972.21341394 </i>
    <i name="hartreedc">  -2770.70198379 </i>
    <i name="XCdc">    -30.72325325 </i>
    <i name="pawpsdc">   3592.43359978 </i>
    <i name="pawaedc">  -3419.84798471 </i>
    <i name="eentropy">     -0.00674984 </i>
    <i name="bandstr">   -129.37321176 </i>
    <i name="atom">   4046.74041765 </i>
    <i name="e_fr_energy">    331.52780132 </i>
    <i name="e_wo_entrp">    331.53455117 </i>
    <i name="e_0_energy">    331.53117625 </i>
   </energy>
  </scstep>
  <scstep>
   <time name="dav">    1.19    1.19</time>
   <time name="total">    1.19    1.19</time>
   <energy>
    <i name="e_fr_energy">     12.91210367 </i>
    <i name="e_wo_entrp">     12.92059221 </i>
    <i name="e_0_energy">     12.91634794 </i>
   </energy>
  </scstep>
  <scstep>
   <time name="dav">    1.31    1.31</time>
   <time name="total">    1.31    1.31</time>
   <energy>
    <i name="e_fr_energy">    -15.83652661 </i>
    <i name="e_wo_entrp">    -15.82226757 </i>
    <i name="e_0_energy">    -15.82939709 </i>
   </energy>
  </scstep>
  <scstep>
   <time name="dav">    1.31    1.33</time>
   <time name="total">    1.31    1.33</time>
   <energy>
    <i name="e_fr_energy">    -16.83989502 </i>
    <i name="e_wo_entrp">    -16.82588269 </i>
    <i name="e_0_energy">    -16.83288885 </i>
   </energy>
  </scstep>
  <scstep>
   <time name="dav">    1.40    1.45</time>
   <time name="total">    1.53    1.58</time>
   <energy>
    <i name="e_fr_energy">    -16.85858880 </i>
    <i name="e_wo_entrp">    -16.84458924 </i>
    <i name="e_0_energy">    -16.85158902 </i>
   </energy>
  </scstep>
  <scstep>
   <time name="diag">    0.36    0.36</time>
   <time name="diis">    0.28    0.28</time>
   <time name="orth">    0.03    0.03</time>
   <time name="total">    0.90    0.90</time>
   <energy>
    <i name="e_fr_energy">    -16.67151689 </i>
    <i name="e_wo_entrp">    -16.66017778 </i>
    <i name="e_0_energy">    -16.66584733 </i>
   </energy>
  </scstep>
  <scstep>
   <time name="diag">    0.36    0.36</time>
   <time name="diis">    0.32    0.32</time>
   <time name="orth">    0.03    0.03</time>
   <time name="total">    0.94    0.94</time>
   <energy>
    <i name="e_fr_energy">    -16.99968955 </i>
    <i name="e_wo_entrp">    -16.98833138 </i>
    <i name="e_0_energy">    -16.99401047 </i>
   </energy>
  </scstep>
  <scstep>
   <time name="diag">    0.36    0.36</time>
   <time name="diis">    0.31    0.31</time>
   <time name="orth">    0.03    0.03</time>
   <time name="total">    0.93    0.93</time>
   <energy>
    <i name="e_fr_energy">    -17.11269161 </i>
    <i name="e_wo_entrp">    -17.10098624 </i>
    <i name="e_0_energy">    -17.10683893 </i>
   </energy>
  </scstep>
  <scstep>
   <time name="diag">    0.36    0.36</time>
   <time name="diis">    0.35    0.35</time>
   <time name="orth">    0.03    0.03</time>
   <time name="total">    0.97    0.97</time>
   <energy>
    <i name="e_fr_energy">    -17.11415145 </i>
    <i name="e_wo_entrp">    -17.10210980 </i>
    <i name="e_0_energy">    -17.10813062 </i>
   </energy>
  </scstep>
  <scstep>
   <time name="diag">    0.36    0.36</time>
   <time name="diis">    0.35    0.35</time>
   <time name="orth">    0.03    0.03</time>
   <time name="total">    0.97    0.97</time>
   <energy>
    <i name="e_fr_energy">    -17.11482779 </i>
    <i name="e_wo_entrp">    -17.10273304 </i>
    <i name="e_0_energy">    -17.10878042 </i>
   </energy>
  </scstep>
  <scstep>
   <time name="diag">    0.36    0.36</time>
   <time name="diis">    0.33    0.33</time>
   <time name="orth">    0.03    0.03</time>
   <time name="total">    0.95    0.95</time>
   <energy>
    <i name="e_fr_energy">    -17.11542395 </i>
    <i name="e_wo_entrp">    -17.10344625 </i>
    <i name="e_0_energy">    -17.10943510 </i>
   </energy>
  </scstep>
  <scstep>
   <time name="diag">    0.38    0.38</time>
   <time name="diis">    0.37    0.37</time>
   <time name="orth">    0.03    0.03</time>
   <time name="total">    1.01    1.01</time>
   <energy>
    <i name="e_fr_energy">    -17.11537345 </i>
    <i name="e_wo_entrp">    -17.10343131 </i>
    <i name="e_0_energy">    -17.10940238 </i>
   </energy>
  </scstep>
  <scstep>
   <time name="diag">    0.36    0.36</time>
   <time name="diis">    0.36    0.36</time>
   <time name="orth">    0.03    0.03</time>
   <time name="total">    0.98    0.98</time>
   <energy>
    <i name="e_fr_energy">    -17.11534387 </i>
    <i name="e_wo_entrp">    -17.10341495 </i>
    <i name="e_0_energy">    -17.10937941 </i>
   </energy>
  </scstep>
  <scstep>
   <time name="diag">    0.36    0.36</time>
   <time name="diis">    0.37    0.37</time>
   <time name="orth">    0.03    0.03</time>
   <time name="total">    0.99    0.99</time>
   <energy>
    <i name="e_fr_energy">    -17.11525317 </i>
    <i name="e_wo_entrp">    -17.10332578 </i>
    <i name="e_0_energy">    -17.10928948 </i>
   </energy>
  </scstep>
  <scstep>
   <time name="diag">    0.36    0.36</time>
   <time name="diis">    0.34    0.34</time>
   <time name="orth">    0.03    0.03</time>
   <time name="total">    0.84    0.84</time>
   <energy>
    <i name="alphaZ">     15.22038120 </i>
    <i name="ewald">   -972.21341394 </i>
    <i name="hartreedc">  -2774.21107369 </i>
    <i name="XCdc">    -30.38583877 </i>
    <i name="pawpsdc">   5387.57865895 </i>
    <i name="pawaedc">  -5215.08577749 </i>
    <i name="eentropy">     -0.01192592 </i>
    <i name="bandstr">   -474.74667226 </i>
    <i name="atom">   4046.74041765 </i>
    <i name="e_fr_energy">    -17.11524427 </i>
    <i name="e_wo_entrp">    -17.10331835 </i>
    <i name="e_0_energy">    -17.10928131 </i>
   </energy>
  </scstep>
  <structure>
   <crystal>
    <varray name="basis" >
     <v>       8.54774287       0.00000000       0.00000000 </v>
     <v>       0.00000000       8.54774287       0.00000000 </v>
     <v>       0.00000000       0.00000000       7.12734328 </v>
    </varray>
    <i name="volume">    520.75155532 </i>
    <varray name="rec_basis" >
     <v>       0.11698995       0.00000000       0.00000000 </v>
     <v>       0.00000000       0.11698995       0.00000000 </v>
     <v>       0.00000000       0.00000000       0.14030473 </v>
    </varray>
   </crystal>
   <varray name="positions" >
    <v>       0.50000000       0.50000000       0.25000000 </v>
    <v>       0.50000000       0.50000000       0.75000000 </v>
    <v>       0.68110312       0.68110311       0.00000000 </v>
    <v>       0.31889689       0.31889689       0.00000000 </v>
    <v>       0.31889689       0.68110311       0.50000000 </v>
    <v>       0.68110312       0.31889689       0.50000000 </v>
   </varray>
  </structure>
  <varray name="forces" >
   <v>       0.00000000       0.00000000      -0.00000000 </v>
   <v>       0.00000000       0.00000000      -0.00000000 </v>
   <v>       0.02618745       0.02618745      -0.00000000 </v>
   <v>      -0.02618745      -0.02618745       0.00000000 </v>
   <v>      -0.02618745       0.02618745      -0.00000000 </v>
   <v>       0.02618745      -0.02618745       0.00000000 </v>
  </varray>
  <varray name="stress" >
   <v>      -0.11788966       0.00000000       0.00000000 </v>
   <v>       0.00000000      -0.11788966       0.00000000 </v>
   <v>       0.00000000       0.00000000      -0.13436450 </v>
  </varray>
  <energy>
   <i name="e_fr_energy">    -17.11524427 </i>
   <i name="e_wo_entrp">    -17.10928131 </i>
   <i name="e_0_energy">     -0.01192592 </i>
  </energy>
  <time name="totalsc">   26.39   26.94</time>
  <eigenvalues>
   <array>
    <dimension dim="1">band</dimension>
    <dimension dim="2">kpoint</dimension>
    <dimension dim="3">spin</dimension>
    <field>eigene</field>
    <field>occ</field>
    <set>
     <set comment="spin 1">
      <set comment="kpoint 1">
       <r>  -15.6458    1.0000 </r>
       <r>  -15.6458    1.0000 </r>
       <r>  -15.5828    1.0000 </r>
       <r>  -15.5513    1.0000 </r>
       <r>  -15.4845    1.0000 </r>
       <r>  -15.4746    1.0000 </r>
       <r>  -15.4746    1.0000 </r>
       <r>  -15.4395    1.0000 </r>
       <r>  -15.4267    1.0000 </r>
       <r>  -15.3668    1.0000 </r>
       <r>  -12.2544    1.0000 </r>
       <r>  -11.4705    1.0000 </r>
       <r>  -11.3539    1.0000 </r>
       <r>  -11.3539    1.0000 </r>
       <r>   -6.1515    1.0000 </r>
       <r>   -5.9596    1.0000 </r>
       <r>   -4.1068    1.0000 </r>
       <r>   -3.2292    1.0000 </r>
       <r>   -3.2292    1.0000 </r>
       <r>   -3.0154    1.0000 </r>
       <r>   -3.0154    1.0000 </r>
       <r>   -2.6317    1.0000 </r>
       <r>   -2.1538    1.0000 </r>
       <r>   -2.0986    1.0000 </r>
       <r>   -2.0986    1.0000 </r>
       <r>   -2.0130    1.0000 </r>
       <r>    0.5278    0.0000 </r>
       <r>    0.9369    0.0000 </r>
       <r>    2.3025    0.0000 </r>
       <r>    2.3025    0.0000 </r>
       <r>    2.8985    0.0000 </r>
       <r>    3.2188    0.0000 </r>
       <r>    3.8006    0.0000 </r>
       <r>    3.8006    0.0000 </r>
       <r>    4.3186    0.0000 </r>
       <r>    4.4181    0.0000 </r>
       <r>    4.4666    0.0000 </r>
       <r>    4.4855    0.0000 </r>
       <r>    4.7634    0.0000 </r>
       <r>    5.8019    0.0000 </r>
       <r>    5.8019    0.0000 </r>
       <r>    5.8563    0.0000 </r>
       <r>    6.4063    0.0000 </r>
       <r>    6.4063    0.0000 </r>
       <r>    6.4099    0.0000 </r>
       <r>    6.9681    0.0000 </r>
       <r>    6.9684    0.0000 </r>
       <r>    7.1056    0.0000 </r>
      </set>
      <set comment="kpoint 2">
       <r>  -15.6448    1.0000 </r>
       <r>  -15.6448    1.0000 </r>
       <r>  -15.5809    1.0000 </r>
       <r>  -15.5507    1.0000 </r>
       <r>  -15.4850    1.0000 </r>
       <r>  -15.4757    1.0000 </r>
       <r>  -15.4757    1.0000 </r>
       <r>  -15.4394    1.0000 </r>
       <r>  -15.4268    1.0000 </r>
       <r>  -15.3687    1.0000 </r>
       <r>  -12.2482    1.0000 </r>
       <r>  -11.4797    1.0000 </r>
       <r>  -11.3535    1.0000 </r>
       <r>  -11.3535    1.0000 </r>
       <r>   -6.1499    1.0000 </r>
       <r>   -5.9614    1.0000 </r>
       <r>   -4.0854    1.0000 </r>
       <r>   -3.2822    1.0000 </r>
       <r>   -3.2822    1.0000 </r>
       <r>   -2.9618    1.0000 </r>
       <r>   -2.9618    1.0000 </r>
       <r>   -2.6266    1.0000 </r>
       <r>   -2.1721    1.0000 </r>
       <r>   -2.0952    1.0000 </r>
       <r>   -2.0952    1.0000 </r>
       <r>   -2.0201    1.0000 </r>
       <r>    0.5274    0.0000 </r>
       <r>    0.9505    0.0000 </r>
       <r>    2.3159    0.0000 </r>
       <r>    2.3159    0.0000 </r>
       <r>    2.8997    0.0000 </r>
       <r>    3.1822    0.0000 </r>
       <r>    3.7901    0.0000 </r>
       <r>    3.7901    0.0000 </r>
       <r>    4.2105    0.0000 </r>
       <r>    4.3339    0.0000 </r>
       <r>    4.4839    0.0000 </r>
       <r>    4.7086    0.0000 </r>
       <r>    4.7694    0.0000 </r>
       <r>    5.7654    0.0000 </r>
       <r>    5.7654    0.0000 </r>
       <r>    5.7967    0.0000 </r>
       <r>    6.4059    0.0000 </r>
       <r>    6.4059    0.0000 </r>
       <r>    6.4359    0.0000 </r>
       <r>    6.8051    0.0000 </r>
       <r>    6.8051    0.0000 </r>
       <r>    7.0555    0.0000 </r>
      </set>
      <set comment="kpoint 3">
       <r>  -15.6420    1.0000 </r>
       <r>  -15.6420    1.0000 </r>
       <r>  -15.5752    1.0000 </r>
       <r>  -15.5492    1.0000 </r>
       <r>  -15.4865    1.0000 </r>
       <r>  -15.4788    1.0000 </r>
       <r>  -15.4788    1.0000 </r>
       <r>  -15.4391    1.0000 </r>
       <r>  -15.4272    1.0000 </r>
       <r>  -15.3746    1.0000 </r>
       <r>  -12.2294    1.0000 </r>
       <r>  -11.5066    1.0000 </r>
       <r>  -11.3525    1.0000 </r>
       <r>  -11.3525    1.0000 </r>
       <r>   -6.1450    1.0000 </r>
       <r>   -5.9668    1.0000 </r>
       <r>   -4.0224    1.0000 </r>
       <r>   -3.3781    1.0000 </r>
       <r>   -3.3781    1.0000 </r>
       <r>   -2.8647    1.0000 </r>
       <r>   -2.8647    1.0000 </r>
       <r>   -2.6115    1.0000 </r>
       <r>   -2.2257    1.0000 </r>
       <r>   -2.0854    1.0000 </r>
       <r>   -2.0854    1.0000 </r>
       <r>   -2.0409    1.0000 </r>
       <r>    0.5277    0.0000 </r>
       <r>    0.9870    0.0000 </r>
       <r>    2.3560    0.0000 </r>
       <r>    2.3560    0.0000 </r>
       <r>    2.9010    0.0000 </r>
       <r>    3.0683    0.0000 </r>
       <r>    3.7606    0.0000 </r>
       <r>    3.7606    0.0000 </r>
       <r>    4.0421    0.0000 </r>
       <r>    4.3786    0.0000 </r>
       <r>    4.5325    0.0000 </r>
       <r>    4.7865    0.0000 </r>
       <r>    4.9310    0.0000 </r>
       <r>    5.6436    0.0000 </r>
       <r>    5.6436    0.0000 </r>
       <r>    5.6549    0.0000 </r>
       <r>    6.3979    0.0000 </r>
       <r>    6.3979    0.0000 </r>
       <r>    6.5135    0.0000 </r>
       <r>    6.6170    0.0000 </r>
       <r>    6.6170    0.0000 </r>
       <r>    6.9498    0.0000 </r>
      </set>
      <set comment="kpoint 4">
       <r>  -15.6376    1.0000 </r>
       <r>  -15.6376    1.0000 </r>
       <r>  -15.5661    1.0000 </r>
       <r>  -15.5467    1.0000 </r>
       <r>  -15.4888    1.0000 </r>
       <r>  -15.4837    1.0000 </r>
       <r>  -15.4837    1.0000 </r>
       <r>  -15.4385    1.0000 </r>
       <r>  -15.4278    1.0000 </r>
       <r>  -15.3841    1.0000 </r>
       <r>  -12.1985    1.0000 </r>
       <r>  -11.5496    1.0000 </r>
       <r>  -11.3510    1.0000 </r>
       <r>  -11.3510    1.0000 </r>
       <r>   -6.1370    1.0000 </r>
       <r>   -5.9756    1.0000 </r>
       <r>   -3.9214    1.0000 </r>
       <r>   -3.4747    1.0000 </r>
       <r>   -3.4747    1.0000 </r>
       <r>   -2.7674    1.0000 </r>
       <r>   -2.7674    1.0000 </r>
       <r>   -2.5868    1.0000 </r>
       <r>   -2.3115    1.0000 </r>
       <r>   -2.0742    1.0000 </r>
       <r>   -2.0698    1.0000 </r>
       <r>   -2.0698    1.0000 </r>
       <r>    0.5330    0.0000 </r>
       <r>    1.0330    0.0000 </r>
       <r>    2.4229    0.0000 </r>
       <r>    2.4229    0.0000 </r>
       <r>    2.8937    0.0000 </r>
       <r>    2.8960    0.0000 </r>
       <r>    3.7159    0.0000 </r>
       <r>    3.7159    0.0000 </r>
       <r>    3.9668    0.0000 </r>
       <r>    4.4493    0.0000 </r>
       <r>    4.5995    0.0000 </r>
       <r>    4.8133    0.0000 </r>
       <r>    5.0992    0.0000 </r>
       <r>    5.4385    0.0000 </r>
       <r>    5.4385    0.0000 </r>
       <r>    5.4947    0.0000 </r>
       <r>    6.2920    0.0000 </r>
       <r>    6.2920    0.0000 </r>
       <r>    6.5845    0.0000 </r>
       <r>    6.5847    0.0000 </r>
       <r>    6.6382    0.0000 </r>
       <r>    6.8134    0.0000 </r>
      </set>
      <set comment="kpoint 5">
       <r>  -15.6320    1.0000 </r>
       <r>  -15.6320    1.0000 </r>
       <r>  -15.5542    1.0000 </r>
       <r>  -15.5433    1.0000 </r>
       <r>  -15.4915    1.0000 </r>
       <r>  -15.4898    1.0000 </r>
       <r>  -15.4898    1.0000 </r>
       <r>  -15.4377    1.0000 </r>
       <r>  -15.4286    1.0000 </r>
       <r>  -15.3969    1.0000 </r>
       <r>  -12.1564    1.0000 </r>
       <r>  -11.6059    1.0000 </r>
       <r>  -11.3491    1.0000 </r>
       <r>  -11.3491    1.0000 </r>
       <r>   -6.1257    1.0000 </r>
       <r>   -5.9876    1.0000 </r>
       <r>   -3.7878    1.0000 </r>
       <r>   -3.5610    1.0000 </r>
       <r>   -3.5610    1.0000 </r>
       <r>   -2.6820    1.0000 </r>
       <r>   -2.6820    1.0000 </r>
       <r>   -2.5530    1.0000 </r>
       <r>   -2.4252    1.0000 </r>
       <r>   -2.1181    1.0000 </r>
       <r>   -2.0497    1.0000 </r>
       <r>   -2.0497    1.0000 </r>
       <r>    0.5492    0.0000 </r>
       <r>    1.0671    0.0000 </r>
       <r>    2.5154    0.0000 </r>
       <r>    2.5154    0.0000 </r>
       <r>    2.7130    0.0000 </r>
       <r>    2.8774    0.0000 </r>
       <r>    3.6591    0.0000 </r>
       <r>    3.6591    0.0000 </r>
       <r>    3.9658    0.0000 </r>
       <r>    4.5402    0.0000 </r>
       <r>    4.6522    0.0000 </r>
       <r>    4.8464    0.0000 </r>
       <r>    5.1892    0.0000 </r>
       <r>    5.1892    0.0000 </r>
       <r>    5.2126    0.0000 </r>
       <r>    5.3719    0.0000 </r>
       <r>    6.1292    0.0000 </r>
       <r>    6.1294    0.0000 </r>
       <r>    6.6588    0.0000 </r>
       <r>    6.6610    0.0000 </r>
       <r>    6.6717    0.0000 </r>
       <r>    6.7980    0.0000 </r>
      </set>
      <set comment="kpoint 6">
       <r>  -15.6259    1.0000 </r>
       <r>  -15.6259    1.0000 </r>
       <r>  -15.5410    1.0000 </r>
       <r>  -15.5392    1.0000 </r>
       <r>  -15.4965    1.0000 </r>
       <r>  -15.4965    1.0000 </r>
       <r>  -15.4935    1.0000 </r>
       <r>  -15.4367    1.0000 </r>
       <r>  -15.4296    1.0000 </r>
       <r>  -15.4124    1.0000 </r>
       <r>  -12.1038    1.0000 </r>
       <r>  -11.6725    1.0000 </r>
       <r>  -11.3473    1.0000 </r>
       <r>  -11.3473    1.0000 </r>
       <r>   -6.1115    1.0000 </r>
       <r>   -6.0023    1.0000 </r>
       <r>   -3.6319    1.0000 </r>
       <r>   -3.6319    1.0000 </r>
       <r>   -3.6286    1.0000 </r>
       <r>   -2.6138    1.0000 </r>
       <r>   -2.6138    1.0000 </r>
       <r>   -2.5627    1.0000 </r>
       <r>   -2.5110    1.0000 </r>
       <r>   -2.1700    1.0000 </r>
       <r>   -2.0278    1.0000 </r>
       <r>   -2.0278    1.0000 </r>
       <r>    0.5822    0.0000 </r>
       <r>    1.0644    0.0000 </r>
       <r>    2.5830    0.0000 </r>
       <r>    2.6306    0.0000 </r>
       <r>    2.6306    0.0000 </r>
       <r>    2.8393    0.0000 </r>
       <r>    3.5906    0.0000 </r>
       <r>    3.5906    0.0000 </r>
       <r>    4.0127    0.0000 </r>
       <r>    4.6405    0.0000 </r>
       <r>    4.6427    0.0000 </r>
       <r>    4.8802    0.0000 </r>
       <r>    4.9415    0.0000 </r>
       <r>    4.9415    0.0000 </r>
       <r>    5.2853    0.0000 </r>
       <r>    5.3327    0.0000 </r>
       <r>    5.9854    0.0000 </r>
       <r>    5.9862    0.0000 </r>
       <r>    6.5314    0.0000 </r>
       <r>    6.5534    0.0000 </r>
       <r>    6.7328    0.0000 </r>
       <r>    6.7471    0.0000 </r>
      </set>
      <set comment="kpoint 7">
       <r>  -15.6201    1.0000 </r>
       <r>  -15.6201    1.0000 </r>
       <r>  -15.5347    1.0000 </r>
       <r>  -15.5296    1.0000 </r>
       <r>  -15.5027    1.0000 </r>
       <r>  -15.5027    1.0000 </r>
       <r>  -15.4921    1.0000 </r>
       <r>  -15.4356    1.0000 </r>
       <r>  -15.4307    1.0000 </r>
       <r>  -15.4299    1.0000 </r>
       <r>  -12.0423    1.0000 </r>
       <r>  -11.7458    1.0000 </r>
       <r>  -11.3458    1.0000 </r>
       <r>  -11.3458    1.0000 </r>
       <r>   -6.0949    1.0000 </r>
       <r>   -6.0193    1.0000 </r>
       <r>   -3.6845    1.0000 </r>
       <r>   -3.6845    1.0000 </r>
       <r>   -3.4517    1.0000 </r>
       <r>   -2.7199    1.0000 </r>
       <r>   -2.5652    1.0000 </r>
       <r>   -2.5652    1.0000 </r>
       <r>   -2.4619    1.0000 </r>
       <r>   -2.2275    1.0000 </r>
       <r>   -2.0078    1.0000 </r>
       <r>   -2.0078    1.0000 </r>
       <r>    0.6368    0.0000 </r>
       <r>    1.0111    0.0000 </r>
       <r>    2.5329    0.0000 </r>
       <r>    2.7597    0.0000 </r>
       <r>    2.7597    0.0000 </r>
       <r>    2.7800    0.0000 </r>
       <r>    3.5096    0.0000 </r>
       <r>    3.5096    0.0000 </r>
       <r>    4.0910    0.0000 </r>
       <r>    4.5546    0.0000 </r>
       <r>    4.7337    0.0000 </r>
       <r>    4.7337    0.0000 </r>
       <r>    4.7447    0.0000 </r>
       <r>    4.9064    0.0000 </r>
       <r>    5.3333    0.0000 </r>
       <r>    5.3614    0.0000 </r>
       <r>    5.8768    0.0000 </r>
       <r>    5.8774    0.0000 </r>
       <r>    6.4300    0.0000 </r>
       <r>    6.5226    0.0000 </r>
       <r>    6.5711    0.0000 </r>
       <r>    6.8184    0.0000 </r>
      </set>
      <set comment="kpoint 8">
       <r>  -15.6159    1.0000 </r>
       <r>  -15.6159    1.0000 </r>
       <r>  -15.5301    1.0000 </r>
       <r>  -15.5249    1.0000 </r>
       <r>  -15.5072    1.0000 </r>
       <r>  -15.5072    1.0000 </r>
       <r>  -15.4830    1.0000 </r>
       <r>  -15.4486    1.0000 </r>
       <r>  -15.4344    1.0000 </r>
       <r>  -15.4319    1.0000 </r>
       <r>  -11.9734    1.0000 </r>
       <r>  -11.8225    1.0000 </r>
       <r>  -11.3447    1.0000 </r>
       <r>  -11.3447    1.0000 </r>
       <r>   -6.0766    1.0000 </r>
       <r>   -6.0379    1.0000 </r>
       <r>   -3.7168    1.0000 </r>
       <r>   -3.7168    1.0000 </r>
       <r>   -3.2650    1.0000 </r>
       <r>   -2.8927    1.0000 </r>
       <r>   -2.5363    1.0000 </r>
       <r>   -2.5363    1.0000 </r>
       <r>   -2.4072    1.0000 </r>
       <r>   -2.2878    1.0000 </r>
       <r>   -1.9937    1.0000 </r>
       <r>   -1.9937    1.0000 </r>
       <r>    0.7147    0.0000 </r>
       <r>    0.9187    0.0000 </r>
       <r>    2.5555    0.0000 </r>
       <r>    2.7037    0.0000 </r>
       <r>    2.8808    0.0000 </r>
       <r>    2.8808    0.0000 </r>
       <r>    3.4246    0.0000 </r>
       <r>    3.4246    0.0000 </r>
       <r>    4.1918    0.0000 </r>
       <r>    4.4340    0.0000 </r>
       <r>    4.5963    0.0000 </r>
       <r>    4.5963    0.0000 </r>
       <r>    4.8318    0.0000 </r>
       <r>    4.9135    0.0000 </r>
       <r>    5.3677    0.0000 </r>
       <r>    5.3906    0.0000 </r>
       <r>    5.8097    0.0000 </r>
       <r>    5.8100    0.0000 </r>
       <r>    6.3755    0.0000 </r>
       <r>    6.4483    0.0000 </r>
       <r>    6.6254    0.0000 </r>
       <r>    6.8684    0.0000 </r>
      </set>
      <set comment="kpoint 9">
       <r>  -15.6144    1.0000 </r>
       <r>  -15.6144    1.0000 </r>
       <r>  -15.5262    1.0000 </r>
       <r>  -15.5262    1.0000 </r>
       <r>  -15.5089    1.0000 </r>
       <r>  -15.5089    1.0000 </r>
       <r>  -15.4670    1.0000 </r>
       <r>  -15.4670    1.0000 </r>
       <r>  -15.4331    1.0000 </r>
       <r>  -15.4331    1.0000 </r>
       <r>  -11.8993    1.0000 </r>
       <r>  -11.8993    1.0000 </r>
       <r>  -11.3444    1.0000 </r>
       <r>  -11.3444    1.0000 </r>
       <r>   -6.0573    1.0000 </r>
       <r>   -6.0573    1.0000 </r>
       <r>   -3.7277    1.0000 </r>
       <r>   -3.7277    1.0000 </r>
       <r>   -3.0764    1.0000 </r>
       <r>   -3.0764    1.0000 </r>
       <r>   -2.5268    1.0000 </r>
       <r>   -2.5268    1.0000 </r>
       <r>   -2.3484    1.0000 </r>
       <r>   -2.3484    1.0000 </r>
       <r>   -1.9886    1.0000 </r>
       <r>   -1.9886    1.0000 </r>
       <r>    0.8126    0.0000 </r>
       <r>    0.8126    0.0000 </r>
       <r>    2.6221    0.0000 </r>
       <r>    2.6221    0.0000 </r>
       <r>    2.9384    0.0000 </r>
       <r>    2.9384    0.0000 </r>
       <r>    3.3802    0.0000 </r>
       <r>    3.3802    0.0000 </r>
       <r>    4.3085    0.0000 </r>
       <r>    4.3085    0.0000 </r>
       <r>    4.5485    0.0000 </r>
       <r>    4.5485    0.0000 </r>
       <r>    4.8901    0.0000 </r>
       <r>    4.8901    0.0000 </r>
       <r>    5.3899    0.0000 </r>
       <r>    5.3899    0.0000 </r>
       <r>    5.7872    0.0000 </r>
       <r>    5.7873    0.0000 </r>
       <r>    6.3803    0.0000 </r>
       <r>    6.3803    0.0000 </r>
       <r>    6.8360    0.0000 </r>
       <r>    6.8400    0.0000 </r>
      </set>
     </set>
     <set comment="spin 2">
      <set comment="kpoint 1">
       <r>  -15.6394    1.0000 </r>
       <r>  -15.6394    1.0000 </r>
       <r>  -15.5885    1.0000 </r>
       <r>  -15.5507    1.0000 </r>
       <r>  -15.4890    1.0000 </r>
       <r>  -15.4757    1.0000 </r>
       <r>  -15.4757    1.0000 </r>
       <r>  -15.4453    1.0000 </r>
       <r>  -15.4329    1.0000 </r>
       <r>  -15.3723    1.0000 </r>
       <r>  -12.0024    1.0000 </r>
       <r>  -11.1718    1.0000 </r>
       <r>  -11.0499    1.0000 </r>
       <r>  -11.0499    1.0000 </r>
       <r>   -6.1069    1.0000 </r>
       <r>   -5.8519    1.0000 </r>
       <r>   -3.9825    1.0000 </r>
       <r>   -3.0722    1.0000 </r>
       <r>   -3.0722    1.0000 </r>
       <r>   -2.7247    1.0000 </r>
       <r>   -2.7247    1.0000 </r>
       <r>   -2.0996    1.0000 </r>
       <r>   -1.9494    1.0000 </r>
       <r>   -1.7123    0.9611 </r>
       <r>   -1.7123    0.9611 </r>
       <r>   -1.4162    0.0000 </r>
       <r>    0.6748    0.0000 </r>
       <r>    1.0550    0.0000 </r>
       <r>    2.4500    0.0000 </r>
       <r>    2.4500    0.0000 </r>
       <r>    2.9810    0.0000 </r>
       <r>    3.4099    0.0000 </r>
       <r>    3.8840    0.0000 </r>
       <r>    3.8840    0.0000 </r>
       <r>    4.4762    0.0000 </r>
       <r>    4.5023    0.0000 </r>
       <r>    4.5029    0.0000 </r>
       <r>    4.6575    0.0000 </r>
       <r>    4.9843    0.0000 </r>
       <r>    5.8952    0.0000 </r>
       <r>    5.8952    0.0000 </r>
       <r>    5.9394    0.0000 </r>
       <r>    6.5295    0.0000 </r>
       <r>    6.6121    0.0000 </r>
       <r>    6.6122    0.0000 </r>
       <r>    7.1013    0.0000 </r>
       <r>    7.1063    0.0000 </r>
       <r>    7.1742    0.0000 </r>
      </set>
      <set comment="kpoint 2">
       <r>  -15.6384    1.0000 </r>
       <r>  -15.6384    1.0000 </r>
       <r>  -15.5866    1.0000 </r>
       <r>  -15.5502    1.0000 </r>
       <r>  -15.4895    1.0000 </r>
       <r>  -15.4767    1.0000 </r>
       <r>  -15.4767    1.0000 </r>
       <r>  -15.4452    1.0000 </r>
       <r>  -15.4331    1.0000 </r>
       <r>  -15.3743    1.0000 </r>
       <r>  -11.9958    1.0000 </r>
       <r>  -11.1817    1.0000 </r>
       <r>  -11.0495    1.0000 </r>
       <r>  -11.0495    1.0000 </r>
       <r>   -6.1040    1.0000 </r>
       <r>   -5.8540    1.0000 </r>
       <r>   -3.9609    1.0000 </r>
       <r>   -3.1072    1.0000 </r>
       <r>   -3.1072    1.0000 </r>
       <r>   -2.6919    1.0000 </r>
       <r>   -2.6919    1.0000 </r>
       <r>   -2.0941    1.0000 </r>
       <r>   -1.9688    1.0000 </r>
       <r>   -1.7052    0.9408 </r>
       <r>   -1.7052    0.9408 </r>
       <r>   -1.4242    0.0000 </r>
       <r>    0.6738    0.0000 </r>
       <r>    1.0696    0.0000 </r>
       <r>    2.4615    0.0000 </r>
       <r>    2.4615    0.0000 </r>
       <r>    2.9826    0.0000 </r>
       <r>    3.3627    0.0000 </r>
       <r>    3.8748    0.0000 </r>
       <r>    3.8748    0.0000 </r>
       <r>    4.2591    0.0000 </r>
       <r>    4.5187    0.0000 </r>
       <r>    4.6761    0.0000 </r>
       <r>    4.7461    0.0000 </r>
       <r>    4.9903    0.0000 </r>
       <r>    5.8603    0.0000 </r>
       <r>    5.8603    0.0000 </r>
       <r>    5.8782    0.0000 </r>
       <r>    6.5564    0.0000 </r>
       <r>    6.6148    0.0000 </r>
       <r>    6.6149    0.0000 </r>
       <r>    6.9241    0.0000 </r>
       <r>    6.9245    0.0000 </r>
       <r>    7.2046    0.0000 </r>
      </set>
      <set comment="kpoint 3">
       <r>  -15.6356    1.0000 </r>
       <r>  -15.6356    1.0000 </r>
       <r>  -15.5808    1.0000 </r>
       <r>  -15.5488    1.0000 </r>
       <r>  -15.4909    1.0000 </r>
       <r>  -15.4798    1.0000 </r>
       <r>  -15.4798    1.0000 </r>
       <r>  -15.4448    1.0000 </r>
       <r>  -15.4334    1.0000 </r>
       <r>  -15.3802    1.0000 </r>
       <r>  -11.9763    1.0000 </r>
       <r>  -11.2109    1.0000 </r>
       <r>  -11.0485    1.0000 </r>
       <r>  -11.0485    1.0000 </r>
       <r>   -6.0956    1.0000 </r>
       <r>   -5.8602    1.0000 </r>
       <r>   -3.8971    1.0000 </r>
       <r>   -3.1846    1.0000 </r>
       <r>   -3.1846    1.0000 </r>
       <r>   -2.6212    1.0000 </r>
       <r>   -2.6212    1.0000 </r>
       <r>   -2.0778    1.0000 </r>
       <r>   -2.0256    1.0000 </r>
       <r>   -1.6844    0.8352 </r>
       <r>   -1.6844    0.8352 </r>
       <r>   -1.4478    0.0000 </r>
       <r>    0.6722    0.0000 </r>
       <r>    1.1089    0.0000 </r>
       <r>    2.4965    0.0000 </r>
       <r>    2.4965    0.0000 </r>
       <r>    2.9849    0.0000 </r>
       <r>    3.2189    0.0000 </r>
       <r>    3.8489    0.0000 </r>
       <r>    3.8489    0.0000 </r>
       <r>    4.1158    0.0000 </r>
       <r>    4.5667    0.0000 </r>
       <r>    4.7286    0.0000 </r>
       <r>    4.9745    0.0000 </r>
       <r>    5.0080    0.0000 </r>
       <r>    5.7332    0.0000 </r>
       <r>    5.7424    0.0000 </r>
       <r>    5.7424    0.0000 </r>
       <r>    6.5908    0.0000 </r>
       <r>    6.5908    0.0000 </r>
       <r>    6.6362    0.0000 </r>
       <r>    6.7528    0.0000 </r>
       <r>    6.7528    0.0000 </r>
       <r>    7.1894    0.0000 </r>
      </set>
      <set comment="kpoint 4">
       <r>  -15.6312    1.0000 </r>
       <r>  -15.6312    1.0000 </r>
       <r>  -15.5716    1.0000 </r>
       <r>  -15.5464    1.0000 </r>
       <r>  -15.4931    1.0000 </r>
       <r>  -15.4846    1.0000 </r>
       <r>  -15.4846    1.0000 </r>
       <r>  -15.4442    1.0000 </r>
       <r>  -15.4340    1.0000 </r>
       <r>  -15.3897    1.0000 </r>
       <r>  -11.9441    1.0000 </r>
       <r>  -11.2572    1.0000 </r>
       <r>  -11.0469    1.0000 </r>
       <r>  -11.0469    1.0000 </r>
       <r>   -6.0820    1.0000 </r>
       <r>   -5.8705    1.0000 </r>
       <r>   -3.7944    1.0000 </r>
       <r>   -3.2715    1.0000 </r>
       <r>   -3.2715    1.0000 </r>
       <r>   -2.5453    1.0000 </r>
       <r>   -2.5453    1.0000 </r>
       <r>   -2.1164    1.0000 </r>
       <r>   -2.0509    1.0000 </r>
       <r>   -1.6523    0.5265 </r>
       <r>   -1.6523    0.5265 </r>
       <r>   -1.4853    0.0000 </r>
       <r>    0.6746    0.0000 </r>
       <r>    1.1589    0.0000 </r>
       <r>    2.5549    0.0000 </r>
       <r>    2.5550    0.0000 </r>
       <r>    2.9814    0.0000 </r>
       <r>    3.0104    0.0000 </r>
       <r>    3.8099    0.0000 </r>
       <r>    3.8099    0.0000 </r>
       <r>    4.0705    0.0000 </r>
       <r>    4.6426    0.0000 </r>
       <r>    4.8015    0.0000 </r>
       <r>    5.0355    0.0000 </r>
       <r>    5.1486    0.0000 </r>
       <r>    5.5389    0.0000 </r>
       <r>    5.5389    0.0000 </r>
       <r>    5.5704    0.0000 </r>
       <r>    6.4454    0.0000 </r>
       <r>    6.4455    0.0000 </r>
       <r>    6.7637    0.0000 </r>
       <r>    6.7739    0.0000 </r>
       <r>    6.7795    0.0000 </r>
       <r>    6.9991    0.0000 </r>
      </set>
      <set comment="kpoint 5">
       <r>  -15.6256    1.0000 </r>
       <r>  -15.6256    1.0000 </r>
       <r>  -15.5595    1.0000 </r>
       <r>  -15.5433    1.0000 </r>
       <r>  -15.4956    1.0000 </r>
       <r>  -15.4907    1.0000 </r>
       <r>  -15.4907    1.0000 </r>
       <r>  -15.4435    1.0000 </r>
       <r>  -15.4348    1.0000 </r>
       <r>  -15.4025    1.0000 </r>
       <r>  -11.9001    1.0000 </r>
       <r>  -11.3178    1.0000 </r>
       <r>  -11.0450    1.0000 </r>
       <r>  -11.0450    1.0000 </r>
       <r>   -6.0642    1.0000 </r>
       <r>   -5.8846    1.0000 </r>
       <r>   -3.6580    1.0000 </r>
       <r>   -3.3529    1.0000 </r>
       <r>   -3.3529    1.0000 </r>
       <r>   -2.4785    1.0000 </r>
       <r>   -2.4785    1.0000 </r>
       <r>   -2.2366    1.0000 </r>
       <r>   -2.0142    1.0000 </r>
       <r>   -1.6130    0.1478 </r>
       <r>   -1.6130    0.1478 </r>
       <r>   -1.5345    0.0005 </r>
       <r>    0.6873    0.0000 </r>
       <r>    1.1969    0.0000 </r>
       <r>    2.6364    0.0000 </r>
       <r>    2.6364    0.0000 </r>
       <r>    2.8063    0.0000 </r>
       <r>    2.9641    0.0000 </r>
       <r>    3.7612    0.0000 </r>
       <r>    3.7612    0.0000 </r>
       <r>    4.0916    0.0000 </r>
       <r>    4.7400    0.0000 </r>
       <r>    4.8564    0.0000 </r>
       <r>    5.0695    0.0000 </r>
       <r>    5.2677    0.0000 </r>
       <r>    5.2872    0.0000 </r>
       <r>    5.2872    0.0000 </r>
       <r>    5.4503    0.0000 </r>
       <r>    6.2879    0.0000 </r>
       <r>    6.2880    0.0000 </r>
       <r>    6.7737    0.0000 </r>
       <r>    6.8600    0.0000 </r>
       <r>    6.8631    0.0000 </r>
       <r>    6.9096    0.0000 </r>
      </set>
      <set comment="kpoint 6">
       <r>  -15.6195    1.0000 </r>
       <r>  -15.6195    1.0000 </r>
       <r>  -15.5458    1.0000 </r>
       <r>  -15.5395    1.0000 </r>
       <r>  -15.4977    1.0000 </r>
       <r>  -15.4974    1.0000 </r>
       <r>  -15.4974    1.0000 </r>
       <r>  -15.4425    1.0000 </r>
       <r>  -15.4357    1.0000 </r>
       <r>  -15.4181    1.0000 </r>
       <r>  -11.8451    1.0000 </r>
       <r>  -11.3890    1.0000 </r>
       <r>  -11.0432    1.0000 </r>
       <r>  -11.0432    1.0000 </r>
       <r>   -6.0431    1.0000 </r>
       <r>   -5.9021    1.0000 </r>
       <r>   -3.4945    1.0000 </r>
       <r>   -3.4214    1.0000 </r>
       <r>   -3.4214    1.0000 </r>
       <r>   -2.4259    1.0000 </r>
       <r>   -2.4259    1.0000 </r>
       <r>   -2.3817    1.0000 </r>
       <r>   -1.9685    1.0000 </r>
       <r>   -1.5927    0.0525 </r>
       <r>   -1.5724    0.0141 </r>
       <r>   -1.5724    0.0141 </r>
       <r>    0.7166    0.0000 </r>
       <r>    1.1961    0.0000 </r>
       <r>    2.6644    0.0000 </r>
       <r>    2.7378    0.0000 </r>
       <r>    2.7378    0.0000 </r>
       <r>    2.9269    0.0000 </r>
       <r>    3.7037    0.0000 </r>
       <r>    3.7037    0.0000 </r>
       <r>    4.1528    0.0000 </r>
       <r>    4.8325    0.0000 </r>
       <r>    4.8496    0.0000 </r>
       <r>    5.0355    0.0000 </r>
       <r>    5.0355    0.0000 </r>
       <r>    5.1045    0.0000 </r>
       <r>    5.3464    0.0000 </r>
       <r>    5.4274    0.0000 </r>
       <r>    6.1542    0.0000 </r>
       <r>    6.1544    0.0000 </r>
       <r>    6.6356    0.0000 </r>
       <r>    6.7609    0.0000 </r>
       <r>    6.9494    0.0000 </r>
       <r>    6.9690    0.0000 </r>
      </set>
      <set comment="kpoint 7">
       <r>  -15.6137    1.0000 </r>
       <r>  -15.6137    1.0000 </r>
       <r>  -15.5353    1.0000 </r>
       <r>  -15.5334    1.0000 </r>
       <r>  -15.5036    1.0000 </r>
       <r>  -15.5036    1.0000 </r>
       <r>  -15.4969    1.0000 </r>
       <r>  -15.4415    1.0000 </r>
       <r>  -15.4368    1.0000 </r>
       <r>  -15.4357    1.0000 </r>
       <r>  -11.7806    1.0000 </r>
       <r>  -11.4673    1.0000 </r>
       <r>  -11.0416    1.0000 </r>
       <r>  -11.0416    1.0000 </r>
       <r>   -6.0196    1.0000 </r>
       <r>   -5.9226    1.0000 </r>
       <r>   -3.4728    1.0000 </r>
       <r>   -3.4728    1.0000 </r>
       <r>   -3.3117    1.0000 </r>
       <r>   -2.5472    1.0000 </r>
       <r>   -2.3888    1.0000 </r>
       <r>   -2.3888    1.0000 </r>
       <r>   -1.9149    1.0000 </r>
       <r>   -1.6566    0.5745 </r>
       <r>   -1.5371    0.0007 </r>
       <r>   -1.5371    0.0007 </r>
       <r>    0.7678    0.0000 </r>
       <r>    1.1419    0.0000 </r>
       <r>    2.6114    0.0000 </r>
       <r>    2.8503    0.0000 </r>
       <r>    2.8503    0.0000 </r>
       <r>    2.8676    0.0000 </r>
       <r>    3.6376    0.0000 </r>
       <r>    3.6376    0.0000 </r>
       <r>    4.2407    0.0000 </r>
       <r>    4.7303    0.0000 </r>
       <r>    4.8238    0.0000 </r>
       <r>    4.8238    0.0000 </r>
       <r>    4.9588    0.0000 </r>
       <r>    5.1317    0.0000 </r>
       <r>    5.4019    0.0000 </r>
       <r>    5.4697    0.0000 </r>
       <r>    6.0527    0.0000 </r>
       <r>    6.0528    0.0000 </r>
       <r>    6.6082    0.0000 </r>
       <r>    6.6562    0.0000 </r>
       <r>    6.8044    0.0000 </r>
       <r>    7.0218    0.0000 </r>
      </set>
      <set comment="kpoint 8">
       <r>  -15.6094    1.0000 </r>
       <r>  -15.6094    1.0000 </r>
       <r>  -15.5312    1.0000 </r>
       <r>  -15.5272    1.0000 </r>
       <r>  -15.5081    1.0000 </r>
       <r>  -15.5081    1.0000 </r>
       <r>  -15.4885    1.0000 </r>
       <r>  -15.4544    1.0000 </r>
       <r>  -15.4403    1.0000 </r>
       <r>  -15.4379    1.0000 </r>
       <r>  -11.7082    1.0000 </r>
       <r>  -11.5488    1.0000 </r>
       <r>  -11.0405    1.0000 </r>
       <r>  -11.0405    1.0000 </r>
       <r>   -5.9948    1.0000 </r>
       <r>   -5.9454    1.0000 </r>
       <r>   -3.5046    1.0000 </r>
       <r>   -3.5046    1.0000 </r>
       <r>   -3.1179    1.0000 </r>
       <r>   -2.7287    1.0000 </r>
       <r>   -2.3669    1.0000 </r>
       <r>   -2.3669    1.0000 </r>
       <r>   -1.8549    1.0000 </r>
       <r>   -1.7235    0.9812 </r>
       <r>   -1.5133    0.0001 </r>
       <r>   -1.5133    0.0001 </r>
       <r>    0.8433    0.0000 </r>
       <r>    1.0473    0.0000 </r>
       <r>    2.6362    0.0000 </r>
       <r>    2.7901    0.0000 </r>
       <r>    2.9514    0.0000 </r>
       <r>    2.9514    0.0000 </r>
       <r>    3.5718    0.0000 </r>
       <r>    3.5718    0.0000 </r>
       <r>    4.3481    0.0000 </r>
       <r>    4.6004    0.0000 </r>
       <r>    4.6834    0.0000 </r>
       <r>    4.6834    0.0000 </r>
       <r>    5.0519    0.0000 </r>
       <r>    5.1390    0.0000 </r>
       <r>    5.4462    0.0000 </r>
       <r>    5.4949    0.0000 </r>
       <r>    5.9893    0.0000 </r>
       <r>    5.9894    0.0000 </r>
       <r>    6.5997    0.0000 </r>
       <r>    6.6764    0.0000 </r>
       <r>    6.7183    0.0000 </r>
       <r>    7.0731    0.0000 </r>
      </set>
      <set comment="kpoint 9">
       <r>  -15.6079    1.0000 </r>
       <r>  -15.6079    1.0000 </r>
       <r>  -15.5278    1.0000 </r>
       <r>  -15.5278    1.0000 </r>
       <r>  -15.5098    1.0000 </r>
       <r>  -15.5098    1.0000 </r>
       <r>  -15.4729    1.0000 </r>
       <r>  -15.4729    1.0000 </r>
       <r>  -15.4391    1.0000 </r>
       <r>  -15.4391    1.0000 </r>
       <r>  -11.6301    1.0000 </r>
       <r>  -11.6301    1.0000 </r>
       <r>  -11.0402    1.0000 </r>
       <r>  -11.0402    1.0000 </r>
       <r>   -5.9697    1.0000 </r>
       <r>   -5.9697    1.0000 </r>
       <r>   -3.5154    1.0000 </r>
       <r>   -3.5154    1.0000 </r>
       <r>   -2.9211    1.0000 </r>
       <r>   -2.9211    1.0000 </r>
       <r>   -2.3597    1.0000 </r>
       <r>   -2.3597    1.0000 </r>
       <r>   -1.7904    1.0000 </r>
       <r>   -1.7904    1.0000 </r>
       <r>   -1.5049    0.0000 </r>
       <r>   -1.5049    0.0000 </r>
       <r>    0.9402    0.0000 </r>
       <r>    0.9402    0.0000 </r>
       <r>    2.7060    0.0000 </r>
       <r>    2.7060    0.0000 </r>
       <r>    2.9963    0.0000 </r>
       <r>    2.9963    0.0000 </r>
       <r>    3.5399    0.0000 </r>
       <r>    3.5399    0.0000 </r>
       <r>    4.4697    0.0000 </r>
       <r>    4.4697    0.0000 </r>
       <r>    4.6344    0.0000 </r>
       <r>    4.6344    0.0000 </r>
       <r>    5.1141    0.0000 </r>
       <r>    5.1141    0.0000 </r>
       <r>    5.4811    0.0000 </r>
       <r>    5.4811    0.0000 </r>
       <r>    5.9679    0.0000 </r>
       <r>    5.9679    0.0000 </r>
       <r>    6.6053    0.0000 </r>
       <r>    6.6053    0.0000 </r>
       <r>    6.9500    0.0000 </r>
       <r>    6.9522    0.0000 </r>
      </set>
     </set>
    </set>
   </array>
  </eigenvalues>
  <separator name="orbital magnetization" >
   <v name="MAGDIPOLOUT">      0.00000000      0.00000000      0.00000000</v>
  </separator>
  <dos>
   <i name="efermi">     -1.64998541 </i>
   <total>
    <array>
     <dimension dim="1">gridpoints</dimension>
     <dimension dim="2">spin</dimension>
     <field>energy</field>
     <field>total</field>
     <field>integrated</field>
     <set>
      <set comment="spin 1">
       <r>   -16.7883     0.0000     0.0000 </r>
       <r>   -16.7045     0.0000     0.0000 </r>
       <r>   -16.6208     0.0000     0.0000 </r>
       <r>   -16.5370     0.0000     0.0000 </r>
       <r>   -16.4532     0.0000     0.0000 </r>
       <r>   -16.3694     0.0000     0.0000 </r>
       <r>   -16.2856     0.0000     0.0000 </r>
       <r>   -16.2018     0.0000     0.0000 </r>
       <r>   -16.1181     0.0000     0.0000 </r>
       <r>   -16.0343     0.0000     0.0000 </r>
       <r>   -15.9505     0.0000     0.0000 </r>
       <r>   -15.8667     0.0000     0.0000 </r>
       <r>   -15.7829     0.0004     0.0000 </r>
       <r>   -15.6991     0.7875     0.0660 </r>
       <r>   -15.6153    16.1374     1.4181 </r>
       <r>   -15.5316    27.1299     3.6912 </r>
       <r>   -15.4478    45.0854     7.4686 </r>
       <r>   -15.3640    27.1146     9.7404 </r>
       <r>   -15.2802     3.0742     9.9980 </r>
       <r>   -15.1964     0.0237    10.0000 </r>
       <r>   -15.1126     0.0000    10.0000 </r>
       <r>   -15.0288     0.0000    10.0000 </r>
       <r>   -14.9451     0.0000    10.0000 </r>
       <r>   -14.8613     0.0000    10.0000 </r>
       <r>   -14.7775     0.0000    10.0000 </r>
       <r>   -14.6937     0.0000    10.0000 </r>
       <r>   -14.6099     0.0000    10.0000 </r>
       <r>   -14.5261     0.0000    10.0000 </r>
       <r>   -14.4424     0.0000    10.0000 </r>
       <r>   -14.3586     0.0000    10.0000 </r>
       <r>   -14.2748     0.0000    10.0000 </r>
       <r>   -14.1910     0.0000    10.0000 </r>
       <r>   -14.1072     0.0000    10.0000 </r>
       <r>   -14.0234     0.0000    10.0000 </r>
       <r>   -13.9396     0.0000    10.0000 </r>
       <r>   -13.8559     0.0000    10.0000 </r>
       <r>   -13.7721     0.0000    10.0000 </r>
       <r>   -13.6883     0.0000    10.0000 </r>
       <r>   -13.6045     0.0000    10.0000 </r>
       <r>   -13.5207     0.0000    10.0000 </r>
       <r>   -13.4369     0.0000    10.0000 </r>
       <r>   -13.3531     0.0000    10.0000 </r>
       <r>   -13.2694     0.0000    10.0000 </r>
       <r>   -13.1856     0.0000    10.0000 </r>
       <r>   -13.1018     0.0000    10.0000 </r>
       <r>   -13.0180     0.0000    10.0000 </r>
       <r>   -12.9342     0.0000    10.0000 </r>
       <r>   -12.8504     0.0000    10.0000 </r>
       <r>   -12.7667     0.0000    10.0000 </r>
       <r>   -12.6829     0.0000    10.0000 </r>
       <r>   -12.5991     0.0000    10.0000 </r>
       <r>   -12.5153     0.0000    10.0000 </r>
       <r>   -12.4315     0.0000    10.0000 </r>
       <r>   -12.3477     0.0074    10.0006 </r>
       <r>   -12.2639     1.0701    10.0903 </r>
       <r>   -12.1802     3.9151    10.4183 </r>
       <r>   -12.0964     2.6159    10.6375 </r>
       <r>   -12.0126     1.9831    10.8036 </r>
       <r>   -11.9288     1.7461    10.9499 </r>
       <r>   -11.8450     1.6455    11.0878 </r>
       <r>   -11.7612     1.6317    11.2245 </r>
       <r>   -11.6774     1.7057    11.3674 </r>
       <r>   -11.5937     1.9350    11.5295 </r>
       <r>   -11.5099     2.7677    11.7614 </r>
       <r>   -11.4261     3.0164    12.0142 </r>
       <r>   -11.3423    13.5878    13.1526 </r>
       <r>   -11.2585     9.9859    13.9893 </r>
       <r>   -11.1747     0.1280    14.0000 </r>
       <r>   -11.0910     0.0000    14.0000 </r>
       <r>   -11.0072     0.0000    14.0000 </r>
       <r>   -10.9234     0.0000    14.0000 </r>
       <r>   -10.8396     0.0000    14.0000 </r>
       <r>   -10.7558     0.0000    14.0000 </r>
       <r>   -10.6720     0.0000    14.0000 </r>
       <r>   -10.5882     0.0000    14.0000 </r>
       <r>   -10.5045     0.0000    14.0000 </r>
       <r>   -10.4207     0.0000    14.0000 </r>
       <r>   -10.3369     0.0000    14.0000 </r>
       <r>   -10.2531     0.0000    14.0000 </r>
       <r>   -10.1693     0.0000    14.0000 </r>
       <r>   -10.0855     0.0000    14.0000 </r>
       <r>   -10.0017     0.0000    14.0000 </r>
       <r>    -9.9180     0.0000    14.0000 </r>
       <r>    -9.8342     0.0000    14.0000 </r>
       <r>    -9.7504     0.0000    14.0000 </r>
       <r>    -9.6666     0.0000    14.0000 </r>
       <r>    -9.5828     0.0000    14.0000 </r>
       <r>    -9.4990     0.0000    14.0000 </r>
       <r>    -9.4153     0.0000    14.0000 </r>
       <r>    -9.3315     0.0000    14.0000 </r>
       <r>    -9.2477     0.0000    14.0000 </r>
       <r>    -9.1639     0.0000    14.0000 </r>
       <r>    -9.0801     0.0000    14.0000 </r>
       <r>    -8.9963     0.0000    14.0000 </r>
       <r>    -8.9125     0.0000    14.0000 </r>
       <r>    -8.8288     0.0000    14.0000 </r>
       <r>    -8.7450     0.0000    14.0000 </r>
       <r>    -8.6612     0.0000    14.0000 </r>
       <r>    -8.5774     0.0000    14.0000 </r>
       <r>    -8.4936     0.0000    14.0000 </r>
       <r>    -8.4098     0.0000    14.0000 </r>
       <r>    -8.3260     0.0000    14.0000 </r>
       <r>    -8.2423     0.0000    14.0000 </r>
       <r>    -8.1585     0.0000    14.0000 </r>
       <r>    -8.0747     0.0000    14.0000 </r>
       <r>    -7.9909     0.0000    14.0000 </r>
       <r>    -7.9071     0.0000    14.0000 </r>
       <r>    -7.8233     0.0000    14.0000 </r>
       <r>    -7.7396     0.0000    14.0000 </r>
       <r>    -7.6558     0.0000    14.0000 </r>
       <r>    -7.5720     0.0000    14.0000 </r>
       <r>    -7.4882     0.0000    14.0000 </r>
       <r>    -7.4044     0.0000    14.0000 </r>
       <r>    -7.3206     0.0000    14.0000 </r>
       <r>    -7.2368     0.0000    14.0000 </r>
       <r>    -7.1531     0.0000    14.0000 </r>
       <r>    -7.0693     0.0000    14.0000 </r>
       <r>    -6.9855     0.0000    14.0000 </r>
       <r>    -6.9017     0.0000    14.0000 </r>
       <r>    -6.8179     0.0000    14.0000 </r>
       <r>    -6.7341     0.0000    14.0000 </r>
       <r>    -6.6503     0.0000    14.0000 </r>
       <r>    -6.5666     0.0000    14.0000 </r>
       <r>    -6.4828     0.0000    14.0000 </r>
       <r>    -6.3990     0.0000    14.0000 </r>
       <r>    -6.3152     0.0000    14.0000 </r>
       <r>    -6.2314     0.0437    14.0037 </r>
       <r>    -6.1476     3.1883    14.2708 </r>
       <r>    -6.0639     8.1239    14.9515 </r>
       <r>    -5.9801     7.8299    15.6075 </r>
       <r>    -5.8963     4.5457    15.9884 </r>
       <r>    -5.8125     0.1390    16.0000 </r>
       <r>    -5.7287     0.0000    16.0000 </r>
       <r>    -5.6449     0.0000    16.0000 </r>
       <r>    -5.5611     0.0000    16.0000 </r>
       <r>    -5.4774     0.0000    16.0000 </r>
       <r>    -5.3936     0.0000    16.0000 </r>
       <r>    -5.3098     0.0000    16.0000 </r>
       <r>    -5.2260     0.0000    16.0000 </r>
       <r>    -5.1422     0.0000    16.0000 </r>
       <r>    -5.0584     0.0000    16.0000 </r>
       <r>    -4.9746     0.0000    16.0000 </r>
       <r>    -4.8909     0.0000    16.0000 </r>
       <r>    -4.8071     0.0000    16.0000 </r>
       <r>    -4.7233     0.0000    16.0000 </r>
       <r>    -4.6395     0.0000    16.0000 </r>
       <r>    -4.5557     0.0000    16.0000 </r>
       <r>    -4.4719     0.0000    16.0000 </r>
       <r>    -4.3882     0.0000    16.0000 </r>
       <r>    -4.3044     0.0000    16.0000 </r>
       <r>    -4.2206     0.0006    16.0000 </r>
       <r>    -4.1368     0.2569    16.0216 </r>
       <r>    -4.0530     1.9525    16.1852 </r>
       <r>    -3.9692     1.5511    16.3151 </r>
       <r>    -3.8854     1.2338    16.4185 </r>
       <r>    -3.8017     0.7977    16.4853 </r>
       <r>    -3.7179     3.7957    16.8034 </r>
       <r>    -3.6341     6.4513    17.3439 </r>
       <r>    -3.5503     4.4560    17.7172 </r>
       <r>    -3.4665     3.4131    18.0032 </r>
       <r>    -3.3827     3.4912    18.2957 </r>
       <r>    -3.2989     2.8911    18.5379 </r>
       <r>    -3.2152     4.0482    18.8771 </r>
       <r>    -3.1314     0.8066    18.9447 </r>
       <r>    -3.0476     1.3889    19.0611 </r>
       <r>    -2.9638     2.8650    19.3011 </r>
       <r>    -2.8800     3.5477    19.5983 </r>
       <r>    -2.7962     3.1165    19.8595 </r>
       <r>    -2.7125     3.7263    20.1717 </r>
       <r>    -2.6287     5.9272    20.6683 </r>
       <r>    -2.5449    11.1165    21.5997 </r>
       <r>    -2.4611     7.1268    22.1968 </r>
       <r>    -2.3773     3.5421    22.4936 </r>
       <r>    -2.2935     3.2510    22.7660 </r>
       <r>    -2.2097     3.7784    23.0825 </r>
       <r>    -2.1260     6.0036    23.5855 </r>
       <r>    -2.0422    14.9886    24.8414 </r>
       <r>    -1.9584    12.6055    25.8975 </r>
       <r>    -1.8746     1.2209    25.9998 </r>
       <r>    -1.7908     0.0024    26.0000 </r>
       <r>    -1.7070     0.0000    26.0000 </r>
       <r>    -1.6232     0.0000    26.0000 </r>
       <r>    -1.5395     0.0000    26.0000 </r>
       <r>    -1.4557     0.0000    26.0000 </r>
       <r>    -1.3719     0.0000    26.0000 </r>
       <r>    -1.2881     0.0000    26.0000 </r>
       <r>    -1.2043     0.0000    26.0000 </r>
       <r>    -1.1205     0.0000    26.0000 </r>
       <r>    -1.0367     0.0000    26.0000 </r>
       <r>    -0.9530     0.0000    26.0000 </r>
       <r>    -0.8692     0.0000    26.0000 </r>
       <r>    -0.7854     0.0000    26.0000 </r>
       <r>    -0.7016     0.0000    26.0000 </r>
       <r>    -0.6178     0.0000    26.0000 </r>
       <r>    -0.5340     0.0000    26.0000 </r>
       <r>    -0.4503     0.0000    26.0000 </r>
       <r>    -0.3665     0.0000    26.0000 </r>
       <r>    -0.2827     0.0000    26.0000 </r>
       <r>    -0.1989     0.0000    26.0000 </r>
       <r>    -0.1151     0.0000    26.0000 </r>
       <r>    -0.0313     0.0000    26.0000 </r>
       <r>     0.0525     0.0000    26.0000 </r>
       <r>     0.1362     0.0000    26.0000 </r>
       <r>     0.2200     0.0000    26.0000 </r>
       <r>     0.3038     0.0000    26.0000 </r>
       <r>     0.3876     0.0002    26.0000 </r>
       <r>     0.4714     0.2914    26.0244 </r>
       <r>     0.5552     4.9168    26.4364 </r>
       <r>     0.6390     3.7099    26.7472 </r>
       <r>     0.7227     1.6560    26.8860 </r>
       <r>     0.8065     1.2537    26.9910 </r>
       <r>     0.8903     1.2892    27.0990 </r>
       <r>     0.9741     3.5606    27.3973 </r>
       <r>     1.0579     4.9043    27.8083 </r>
       <r>     1.1417     2.2392    27.9959 </r>
       <r>     1.2254     0.0493    28.0000 </r>
       <r>     1.3092     0.0000    28.0000 </r>
       <r>     1.3930     0.0000    28.0000 </r>
       <r>     1.4768     0.0000    28.0000 </r>
       <r>     1.5606     0.0000    28.0000 </r>
       <r>     1.6444     0.0000    28.0000 </r>
       <r>     1.7282     0.0000    28.0000 </r>
       <r>     1.8119     0.0000    28.0000 </r>
       <r>     1.8957     0.0000    28.0000 </r>
       <r>     1.9795     0.0000    28.0000 </r>
       <r>     2.0633     0.0000    28.0000 </r>
       <r>     2.1471     0.0000    28.0000 </r>
       <r>     2.2309     0.0566    28.0047 </r>
       <r>     2.3147     2.7039    28.2313 </r>
       <r>     2.3984     5.0530    28.6547 </r>
       <r>     2.4822     3.1542    28.9189 </r>
       <r>     2.5660     5.0404    29.3412 </r>
       <r>     2.6498     5.2745    29.7832 </r>
       <r>     2.7336     4.1855    30.1338 </r>
       <r>     2.8174     4.6496    30.5234 </r>
       <r>     2.9011     8.2452    31.2142 </r>
       <r>     2.9849     5.4686    31.6724 </r>
       <r>     3.0687     0.9329    31.7506 </r>
       <r>     3.1525     1.0476    31.8384 </r>
       <r>     3.2363     1.6033    31.9727 </r>
       <r>     3.3201     0.3952    32.0058 </r>
       <r>     3.4039     1.8833    32.1636 </r>
       <r>     3.4876     3.2123    32.4328 </r>
       <r>     3.5714     3.0697    32.6899 </r>
       <r>     3.6552     3.6028    32.9918 </r>
       <r>     3.7390     4.8605    33.3990 </r>
       <r>     3.8228     6.1253    33.9123 </r>
       <r>     3.9066     1.1818    34.0113 </r>
       <r>     3.9904     2.6130    34.2302 </r>
       <r>     4.0741     3.3562    34.5114 </r>
       <r>     4.1579     1.6660    34.6510 </r>
       <r>     4.2417     2.3364    34.8467 </r>
       <r>     4.3255     2.4988    35.0561 </r>
       <r>     4.4093     3.6716    35.3637 </r>
       <r>     4.4931     5.2729    35.8055 </r>
       <r>     4.5768     7.0774    36.3985 </r>
       <r>     4.6606     7.2208    37.0035 </r>
       <r>     4.7444     6.0899    37.5137 </r>
       <r>     4.8282     7.0875    38.1076 </r>
       <r>     4.9120     7.2900    38.7184 </r>
       <r>     4.9958     5.3396    39.1657 </r>
       <r>     5.0796     0.6938    39.2239 </r>
       <r>     5.1633     1.8204    39.3764 </r>
       <r>     5.2471     3.5499    39.6738 </r>
       <r>     5.3309     3.7682    39.9895 </r>
       <r>     5.4147     7.9292    40.6539 </r>
       <r>     5.4985     4.0573    40.9938 </r>
       <r>     5.5823     0.9628    41.0745 </r>
       <r>     5.6661     2.9948    41.3254 </r>
       <r>     5.7498     2.9069    41.5690 </r>
       <r>     5.8336     7.9288    42.2333 </r>
       <r>     5.9174     4.3389    42.5968 </r>
       <r>     6.0012     2.3302    42.7921 </r>
       <r>     6.0850     1.2957    42.9006 </r>
       <r>     6.1688     2.2844    43.0920 </r>
       <r>     6.2525     0.7885    43.1581 </r>
       <r>     6.3363     2.8909    43.4003 </r>
       <r>     6.4201     9.3120    44.1805 </r>
       <r>     6.5039     7.4338    44.8033 </r>
       <r>     6.5877     7.7966    45.4566 </r>
       <r>     6.6715     9.3235    46.2377 </r>
       <r>     6.7553     4.8926    46.6477 </r>
       <r>     6.8390     7.5408    47.2795 </r>
       <r>     6.9228     3.7487    47.5935 </r>
       <r>     7.0066     2.4513    47.7989 </r>
       <r>     7.0904     1.6603    47.9380 </r>
       <r>     7.1742     0.7194    47.9983 </r>
       <r>     7.2580     0.0202    48.0000 </r>
       <r>     7.3418     0.0000    48.0000 </r>
       <r>     7.4255     0.0000    48.0000 </r>
       <r>     7.5093     0.0000    48.0000 </r>
       <r>     7.5931     0.0000    48.0000 </r>
       <r>     7.6769     0.0000    48.0000 </r>
       <r>     7.7607     0.0000    48.0000 </r>
       <r>     7.8445     0.0000    48.0000 </r>
       <r>     7.9282     0.0000    48.0000 </r>
       <r>     8.0120     0.0000    48.0000 </r>
       <r>     8.0958     0.0000    48.0000 </r>
       <r>     8.1796     0.0000    48.0000 </r>
       <r>     8.2634     0.0000    48.0000 </r>
       <r>     8.3472     0.0000    48.0000 </r>
      </set>
      <set comment="spin 2">
       <r>   -16.7883     0.0000     0.0000 </r>
       <r>   -16.7045     0.0000     0.0000 </r>
       <r>   -16.6208     0.0000     0.0000 </r>
       <r>   -16.5370     0.0000     0.0000 </r>
       <r>   -16.4532     0.0000     0.0000 </r>
       <r>   -16.3694     0.0000     0.0000 </r>
       <r>   -16.2856     0.0000     0.0000 </r>
       <r>   -16.2018     0.0000     0.0000 </r>
       <r>   -16.1181     0.0000     0.0000 </r>
       <r>   -16.0343     0.0000     0.0000 </r>
       <r>   -15.9505     0.0000     0.0000 </r>
       <r>   -15.8667     0.0000     0.0000 </r>
       <r>   -15.7829     0.0002     0.0000 </r>
       <r>   -15.6991     0.5290     0.0443 </r>
       <r>   -15.6153    15.0742     1.3073 </r>
       <r>   -15.5316    29.3239     3.7642 </r>
       <r>   -15.4478    46.5613     7.6654 </r>
       <r>   -15.3640    25.3874     9.7925 </r>
       <r>   -15.2802     2.4622     9.9988 </r>
       <r>   -15.1964     0.0148    10.0000 </r>
       <r>   -15.1126     0.0000    10.0000 </r>
       <r>   -15.0288     0.0000    10.0000 </r>
       <r>   -14.9451     0.0000    10.0000 </r>
       <r>   -14.8613     0.0000    10.0000 </r>
       <r>   -14.7775     0.0000    10.0000 </r>
       <r>   -14.6937     0.0000    10.0000 </r>
       <r>   -14.6099     0.0000    10.0000 </r>
       <r>   -14.5261     0.0000    10.0000 </r>
       <r>   -14.4424     0.0000    10.0000 </r>
       <r>   -14.3586     0.0000    10.0000 </r>
       <r>   -14.2748     0.0000    10.0000 </r>
       <r>   -14.1910     0.0000    10.0000 </r>
       <r>   -14.1072     0.0000    10.0000 </r>
       <r>   -14.0234     0.0000    10.0000 </r>
       <r>   -13.9396     0.0000    10.0000 </r>
       <r>   -13.8559     0.0000    10.0000 </r>
       <r>   -13.7721     0.0000    10.0000 </r>
       <r>   -13.6883     0.0000    10.0000 </r>
       <r>   -13.6045     0.0000    10.0000 </r>
       <r>   -13.5207     0.0000    10.0000 </r>
       <r>   -13.4369     0.0000    10.0000 </r>
       <r>   -13.3531     0.0000    10.0000 </r>
       <r>   -13.2694     0.0000    10.0000 </r>
       <r>   -13.1856     0.0000    10.0000 </r>
       <r>   -13.1018     0.0000    10.0000 </r>
       <r>   -13.0180     0.0000    10.0000 </r>
       <r>   -12.9342     0.0000    10.0000 </r>
       <r>   -12.8504     0.0000    10.0000 </r>
       <r>   -12.7667     0.0000    10.0000 </r>
       <r>   -12.6829     0.0000    10.0000 </r>
       <r>   -12.5991     0.0000    10.0000 </r>
       <r>   -12.5153     0.0000    10.0000 </r>
       <r>   -12.4315     0.0000    10.0000 </r>
       <r>   -12.3477     0.0000    10.0000 </r>
       <r>   -12.2639     0.0000    10.0000 </r>
       <r>   -12.1802     0.0000    10.0000 </r>
       <r>   -12.0964     0.0068    10.0006 </r>
       <r>   -12.0126     1.0229    10.0863 </r>
       <r>   -11.9288     3.8293    10.4071 </r>
       <r>   -11.8450     2.5606    10.6216 </r>
       <r>   -11.7612     1.9287    10.7832 </r>
       <r>   -11.6774     1.6863    10.9245 </r>
       <r>   -11.5937     1.5721    11.0562 </r>
       <r>   -11.5099     1.5343    11.1848 </r>
       <r>   -11.4261     1.5633    11.3158 </r>
       <r>   -11.3423     1.6893    11.4573 </r>
       <r>   -11.2585     2.0687    11.6306 </r>
       <r>   -11.1747     3.1417    11.8939 </r>
       <r>   -11.0910     3.5923    12.1948 </r>
       <r>   -11.0072    18.1277    13.7137 </r>
       <r>   -10.9234     3.4101    13.9994 </r>
       <r>   -10.8396     0.0073    14.0000 </r>
       <r>   -10.7558     0.0000    14.0000 </r>
       <r>   -10.6720     0.0000    14.0000 </r>
       <r>   -10.5882     0.0000    14.0000 </r>
       <r>   -10.5045     0.0000    14.0000 </r>
       <r>   -10.4207     0.0000    14.0000 </r>
       <r>   -10.3369     0.0000    14.0000 </r>
       <r>   -10.2531     0.0000    14.0000 </r>
       <r>   -10.1693     0.0000    14.0000 </r>
       <r>   -10.0855     0.0000    14.0000 </r>
       <r>   -10.0017     0.0000    14.0000 </r>
       <r>    -9.9180     0.0000    14.0000 </r>
       <r>    -9.8342     0.0000    14.0000 </r>
       <r>    -9.7504     0.0000    14.0000 </r>
       <r>    -9.6666     0.0000    14.0000 </r>
       <r>    -9.5828     0.0000    14.0000 </r>
       <r>    -9.4990     0.0000    14.0000 </r>
       <r>    -9.4153     0.0000    14.0000 </r>
       <r>    -9.3315     0.0000    14.0000 </r>
       <r>    -9.2477     0.0000    14.0000 </r>
       <r>    -9.1639     0.0000    14.0000 </r>
       <r>    -9.0801     0.0000    14.0000 </r>
       <r>    -8.9963     0.0000    14.0000 </r>
       <r>    -8.9125     0.0000    14.0000 </r>
       <r>    -8.8288     0.0000    14.0000 </r>
       <r>    -8.7450     0.0000    14.0000 </r>
       <r>    -8.6612     0.0000    14.0000 </r>
       <r>    -8.5774     0.0000    14.0000 </r>
       <r>    -8.4936     0.0000    14.0000 </r>
       <r>    -8.4098     0.0000    14.0000 </r>
       <r>    -8.3260     0.0000    14.0000 </r>
       <r>    -8.2423     0.0000    14.0000 </r>
       <r>    -8.1585     0.0000    14.0000 </r>
       <r>    -8.0747     0.0000    14.0000 </r>
       <r>    -7.9909     0.0000    14.0000 </r>
       <r>    -7.9071     0.0000    14.0000 </r>
       <r>    -7.8233     0.0000    14.0000 </r>
       <r>    -7.7396     0.0000    14.0000 </r>
       <r>    -7.6558     0.0000    14.0000 </r>
       <r>    -7.5720     0.0000    14.0000 </r>
       <r>    -7.4882     0.0000    14.0000 </r>
       <r>    -7.4044     0.0000    14.0000 </r>
       <r>    -7.3206     0.0000    14.0000 </r>
       <r>    -7.2368     0.0000    14.0000 </r>
       <r>    -7.1531     0.0000    14.0000 </r>
       <r>    -7.0693     0.0000    14.0000 </r>
       <r>    -6.9855     0.0000    14.0000 </r>
       <r>    -6.9017     0.0000    14.0000 </r>
       <r>    -6.8179     0.0000    14.0000 </r>
       <r>    -6.7341     0.0000    14.0000 </r>
       <r>    -6.6503     0.0000    14.0000 </r>
       <r>    -6.5666     0.0000    14.0000 </r>
       <r>    -6.4828     0.0000    14.0000 </r>
       <r>    -6.3990     0.0000    14.0000 </r>
       <r>    -6.3152     0.0000    14.0000 </r>
       <r>    -6.2314     0.0005    14.0000 </r>
       <r>    -6.1476     0.4235    14.0355 </r>
       <r>    -6.0639     5.1641    14.4682 </r>
[...]
        <r>  0.0279  0.0128  0.0122  0.0128  0.0004  0.0003  0.0000  0.0003  0.0000 </r>
        <r>  0.0279  0.0128  0.0122  0.0128  0.0004  0.0003  0.0000  0.0003  0.0000 </r>
        <r>  0.0245  0.0112  0.0139  0.0112  0.0003  0.0004  0.0000  0.0004  0.0000 </r>
        <r>  0.0245  0.0112  0.0139  0.0112  0.0003  0.0004  0.0000  0.0004  0.0000 </r>
       </set>
       <set comment="band 17">
        <r>  0.0000  0.0188  0.0000  0.0408  0.0000  0.0003  0.0000  0.0001  0.0000 </r>
        <r>  0.0000  0.0408  0.0000  0.0188  0.0000  0.0001  0.0000  0.0003  0.0000 </r>
        <r>  0.0000  0.0105  0.0461  0.0105  0.0000  0.0002  0.0000  0.0002  0.0004 </r>
        <r>  0.0000  0.0105  0.0461  0.0105  0.0000  0.0002  0.0000  0.0002  0.0004 </r>
        <r>  0.0000  0.0065  0.0748  0.0065  0.0000  0.0003  0.0000  0.0003  0.0002 </r>
        <r>  0.0000  0.0065  0.0748  0.0065  0.0000  0.0003  0.0000  0.0003  0.0002 </r>
       </set>
       <set comment="band 18">
        <r>  0.0000  0.0408  0.0000  0.0188  0.0000  0.0001  0.0000  0.0003  0.0000 </r>
        <r>  0.0000  0.0188  0.0000  0.0408  0.0000  0.0003  0.0000  0.0001  0.0000 </r>
        <r>  0.0000  0.0065  0.0748  0.0065  0.0000  0.0003  0.0000  0.0003  0.0002 </r>
        <r>  0.0000  0.0065  0.0748  0.0065  0.0000  0.0003  0.0000  0.0003  0.0002 </r>
        <r>  0.0000  0.0105  0.0461  0.0105  0.0000  0.0002  0.0000  0.0002  0.0004 </r>
        <r>  0.0000  0.0105  0.0461  0.0105  0.0000  0.0002  0.0000  0.0002  0.0004 </r>
       </set>
       <set comment="band 19">
        <r>  0.0114  0.0000  0.0132  0.0000  0.0010  0.0000  0.0086  0.0000  0.0000 </r>
        <r>  0.0017  0.0000  0.0894  0.0000  0.0068  0.0000  0.0013  0.0000  0.0000 </r>
        <r>  0.0001  0.0076  0.0843  0.0076  0.0001  0.0004  0.0001  0.0004  0.0000 </r>
        <r>  0.0001  0.0076  0.0843  0.0076  0.0001  0.0004  0.0001  0.0004  0.0000 </r>
        <r>  0.0003  0.0313  0.0204  0.0313  0.0004  0.0001  0.0003  0.0001  0.0000 </r>
        <r>  0.0003  0.0313  0.0204  0.0313  0.0004  0.0001  0.0003  0.0001  0.0000 </r>
       </set>
       <set comment="band 20">
        <r>  0.0017  0.0000  0.0894  0.0000  0.0068  0.0000  0.0013  0.0000  0.0000 </r>
        <r>  0.0114  0.0000  0.0132  0.0000  0.0010  0.0000  0.0086  0.0000  0.0000 </r>
        <r>  0.0003  0.0313  0.0204  0.0313  0.0004  0.0001  0.0003  0.0001  0.0000 </r>
        <r>  0.0003  0.0313  0.0204  0.0313  0.0004  0.0001  0.0003  0.0001  0.0000 </r>
        <r>  0.0001  0.0076  0.0843  0.0076  0.0001  0.0004  0.0001  0.0004  0.0000 </r>
        <r>  0.0001  0.0076  0.0843  0.0076  0.0001  0.0004  0.0001  0.0004  0.0000 </r>
       </set>
       <set comment="band 21">
        <r>  0.0000  0.0302  0.0000  0.0084  0.0000  0.0016  0.0000  0.0057  0.0000 </r>
        <r>  0.0000  0.0084  0.0000  0.0302  0.0000  0.0057  0.0000  0.0016  0.0000 </r>
        <r>  0.0022  0.0584  0.0000  0.0584  0.0001  0.0000  0.0000  0.0000  0.0000 </r>
        <r>  0.0022  0.0584  0.0000  0.0584  0.0001  0.0000  0.0000  0.0000  0.0000 </r>
        <r>  0.0017  0.0462  0.0000  0.0462  0.0001  0.0000  0.0000  0.0000  0.0000 </r>
        <r>  0.0017  0.0462  0.0000  0.0462  0.0001  0.0000  0.0000  0.0000  0.0000 </r>
       </set>
       <set comment="band 22">
        <r>  0.0000  0.0084  0.0000  0.0302  0.0000  0.0057  0.0000  0.0016  0.0000 </r>
        <r>  0.0000  0.0302  0.0000  0.0084  0.0000  0.0016  0.0000  0.0057  0.0000 </r>
        <r>  0.0017  0.0462  0.0000  0.0462  0.0001  0.0000  0.0000  0.0000  0.0000 </r>
        <r>  0.0017  0.0462  0.0000  0.0462  0.0001  0.0000  0.0000  0.0000  0.0000 </r>
        <r>  0.0022  0.0584  0.0000  0.0584  0.0001  0.0000  0.0000  0.0000  0.0000 </r>
        <r>  0.0022  0.0584  0.0000  0.0584  0.0001  0.0000  0.0000  0.0000  0.0000 </r>
       </set>
       <set comment="band 23">
        <r>  0.0000  0.0000  0.0000  0.0000  0.0000  0.0000  0.0000  0.0000  0.0016 </r>
        <r>  0.0000  0.0000  0.0000  0.0000  0.0000  0.0000  0.0000  0.0000  0.0050 </r>
        <r>  0.0000  0.0443  0.0000  0.0443  0.0000  0.0000  0.0000  0.0000  0.0000 </r>
        <r>  0.0000  0.0443  0.0000  0.0443  0.0000  0.0000  0.0000  0.0000  0.0000 </r>
        <r>  0.0000  0.0611  0.0000  0.0611  0.0000  0.0000  0.0000  0.0000  0.0001 </r>
        <r>  0.0000  0.0611  0.0000  0.0611  0.0000  0.0000  0.0000  0.0000  0.0001 </r>
       </set>
       <set comment="band 24">
        <r>  0.0000  0.0000  0.0000  0.0000  0.0000  0.0000  0.0000  0.0000  0.0050 </r>
        <r>  0.0000  0.0000  0.0000  0.0000  0.0000  0.0000  0.0000  0.0000  0.0016 </r>
        <r>  0.0000  0.0611  0.0000  0.0611  0.0000  0.0000  0.0000  0.0000  0.0001 </r>
        <r>  0.0000  0.0611  0.0000  0.0611  0.0000  0.0000  0.0000  0.0000  0.0001 </r>
        <r>  0.0000  0.0443  0.0000  0.0443  0.0000  0.0000  0.0000  0.0000  0.0000 </r>
        <r>  0.0000  0.0443  0.0000  0.0443  0.0000  0.0000  0.0000  0.0000  0.0000 </r>
       </set>
       <set comment="band 25">
        <r>  0.0000  0.0004  0.0000  0.0005  0.0000  0.0031  0.0000  0.0027  0.0000 </r>
        <r>  0.0000  0.0005  0.0000  0.0004  0.0000  0.0027  0.0000  0.0031  0.0000 </r>
        <r>  0.0000  0.0412  0.0335  0.0412  0.0000  0.0000  0.0000  0.0000  0.0000 </r>
        <r>  0.0000  0.0412  0.0335  0.0412  0.0000  0.0000  0.0000  0.0000  0.0000 </r>
        <r>  0.0000  0.0448  0.0308  0.0448  0.0000  0.0000  0.0000  0.0000  0.0001 </r>
        <r>  0.0000  0.0448  0.0308  0.0448  0.0000  0.0000  0.0000  0.0000  0.0001 </r>
       </set>
       <set comment="band 26">
        <r>  0.0000  0.0005  0.0000  0.0004  0.0000  0.0027  0.0000  0.0031  0.0000 </r>
        <r>  0.0000  0.0004  0.0000  0.0005  0.0000  0.0031  0.0000  0.0027  0.0000 </r>
        <r>  0.0000  0.0448  0.0308  0.0448  0.0000  0.0000  0.0000  0.0000  0.0001 </r>
        <r>  0.0000  0.0448  0.0308  0.0448  0.0000  0.0000  0.0000  0.0000  0.0001 </r>
        <r>  0.0000  0.0412  0.0335  0.0412  0.0000  0.0000  0.0000  0.0000  0.0000 </r>
        <r>  0.0000  0.0412  0.0335  0.0412  0.0000  0.0000  0.0000  0.0000  0.0000 </r>
       </set>
       <set comment="band 27">
        <r>  0.0881  0.0000  0.0189  0.0000  0.0016  0.0000  0.0002  0.0000  0.0000 </r>
        <r>  0.1417  0.0000  0.0117  0.0000  0.0010  0.0000  0.0003  0.0000  0.0000 </r>
        <r>  0.0009  0.0044  0.0687  0.0044  0.0001  0.0033  0.0003  0.0033  0.0000 </r>
        <r>  0.0009  0.0044  0.0687  0.0044  0.0001  0.0033  0.0003  0.0033  0.0000 </r>
        <r>  0.0031  0.0153  0.0198  0.0153  0.0004  0.0009  0.0009  0.0009  0.0000 </r>
        <r>  0.0031  0.0153  0.0198  0.0153  0.0004  0.0009  0.0009  0.0009  0.0000 </r>
       </set>
       <set comment="band 28">
        <r>  0.1417  0.0000  0.0117  0.0000  0.0010  0.0000  0.0003  0.0000  0.0000 </r>
        <r>  0.0881  0.0000  0.0189  0.0000  0.0016  0.0000  0.0002  0.0000  0.0000 </r>
        <r>  0.0031  0.0153  0.0198  0.0153  0.0004  0.0009  0.0009  0.0009  0.0000 </r>
        <r>  0.0031  0.0153  0.0198  0.0153  0.0004  0.0009  0.0009  0.0009  0.0000 </r>
        <r>  0.0009  0.0044  0.0687  0.0044  0.0001  0.0033  0.0003  0.0033  0.0000 </r>
        <r>  0.0009  0.0044  0.0687  0.0044  0.0001  0.0033  0.0003  0.0033  0.0000 </r>
       </set>
       <set comment="band 29">
        <r>  0.0001  0.0000  0.0788  0.0000  0.0036  0.0000  0.0001  0.0000  0.0000 </r>
        <r>  0.0046  0.0000  0.0017  0.0000  0.0001  0.0000  0.0038  0.0000  0.0000 </r>
        <r>  0.0131  0.0069  0.0038  0.0069  0.0017  0.0005  0.0027  0.0005  0.0000 </r>
        <r>  0.0131  0.0069  0.0038  0.0069  0.0017  0.0005  0.0027  0.0005  0.0000 </r>
        <r>  0.0097  0.0051  0.0051  0.0051  0.0012  0.0006  0.0020  0.0006  0.0000 </r>
        <r>  0.0097  0.0051  0.0051  0.0051  0.0012  0.0006  0.0020  0.0006  0.0000 </r>
       </set>
       <set comment="band 30">
        <r>  0.0046  0.0000  0.0017  0.0000  0.0001  0.0000  0.0038  0.0000  0.0000 </r>
        <r>  0.0001  0.0000  0.0788  0.0000  0.0036  0.0000  0.0001  0.0000  0.0000 </r>
        <r>  0.0097  0.0051  0.0051  0.0051  0.0012  0.0006  0.0020  0.0006  0.0000 </r>
        <r>  0.0097  0.0051  0.0051  0.0051  0.0012  0.0006  0.0020  0.0006  0.0000 </r>
        <r>  0.0131  0.0069  0.0038  0.0069  0.0017  0.0005  0.0027  0.0005  0.0000 </r>
        <r>  0.0131  0.0069  0.0038  0.0069  0.0017  0.0005  0.0027  0.0005  0.0000 </r>
       </set>
       <set comment="band 31">
        <r>  0.0000  0.0513  0.0000  0.0544  0.0000  0.0039  0.0000  0.0037  0.0000 </r>
        <r>  0.0000  0.0544  0.0000  0.0513  0.0000  0.0037  0.0000  0.0039  0.0000 </r>
        <r>  0.0100  0.0036  0.0000  0.0036  0.0001  0.0026  0.0030  0.0026  0.0000 </r>
        <r>  0.0100  0.0036  0.0000  0.0036  0.0001  0.0026  0.0030  0.0026  0.0000 </r>
        <r>  0.0166  0.0061  0.0000  0.0061  0.0001  0.0015  0.0050  0.0015  0.0000 </r>
        <r>  0.0166  0.0061  0.0000  0.0061  0.0001  0.0015  0.0050  0.0015  0.0000 </r>
       </set>
       <set comment="band 32">
        <r>  0.0000  0.0544  0.0000  0.0513  0.0000  0.0037  0.0000  0.0039  0.0000 </r>
        <r>  0.0000  0.0513  0.0000  0.0544  0.0000  0.0039  0.0000  0.0037  0.0000 </r>
        <r>  0.0166  0.0061  0.0000  0.0061  0.0001  0.0015  0.0050  0.0015  0.0000 </r>
        <r>  0.0166  0.0061  0.0000  0.0061  0.0001  0.0015  0.0050  0.0015  0.0000 </r>
        <r>  0.0100  0.0036  0.0000  0.0036  0.0001  0.0026  0.0030  0.0026  0.0000 </r>
        <r>  0.0100  0.0036  0.0000  0.0036  0.0001  0.0026  0.0030  0.0026  0.0000 </r>
       </set>
       <set comment="band 33">
        <r>  0.0000  0.0732  0.0000  0.0110  0.0000  0.0010  0.0000  0.0068  0.0000 </r>
        <r>  0.0000  0.0110  0.0000  0.0732  0.0000  0.0068  0.0000  0.0010  0.0000 </r>
        <r>  0.0000  0.0088  0.0204  0.0088  0.0000  0.0017  0.0000  0.0017  0.0093 </r>
        <r>  0.0000  0.0088  0.0204  0.0088  0.0000  0.0017  0.0000  0.0017  0.0093 </r>
        <r>  0.0000  0.0053  0.0336  0.0053  0.0000  0.0028  0.0000  0.0028  0.0056 </r>
        <r>  0.0000  0.0053  0.0336  0.0053  0.0000  0.0028  0.0000  0.0028  0.0056 </r>
       </set>
       <set comment="band 34">
        <r>  0.0000  0.0110  0.0000  0.0732  0.0000  0.0068  0.0000  0.0010  0.0000 </r>
        <r>  0.0000  0.0732  0.0000  0.0110  0.0000  0.0010  0.0000  0.0068  0.0000 </r>
        <r>  0.0000  0.0053  0.0336  0.0053  0.0000  0.0028  0.0000  0.0028  0.0056 </r>
        <r>  0.0000  0.0053  0.0336  0.0053  0.0000  0.0028  0.0000  0.0028  0.0056 </r>
        <r>  0.0000  0.0088  0.0204  0.0088  0.0000  0.0017  0.0000  0.0017  0.0093 </r>
        <r>  0.0000  0.0088  0.0204  0.0088  0.0000  0.0017  0.0000  0.0017  0.0093 </r>
       </set>
       <set comment="band 35">
        <r>  0.0000  0.0000  0.0599  0.0000  0.0076  0.0000  0.0002  0.0000  0.0000 </r>
        <r>  0.0018  0.0000  0.0008  0.0000  0.0001  0.0000  0.0118  0.0000  0.0000 </r>
        <r>  0.0006  0.0058  0.0134  0.0058  0.0082  0.0001  0.0013  0.0001  0.0000 </r>
        <r>  0.0006  0.0058  0.0134  0.0058  0.0082  0.0001  0.0013  0.0001  0.0000 </r>
        <r>  0.0009  0.0092  0.0084  0.0092  0.0131  0.0001  0.0021  0.0001  0.0000 </r>
        <r>  0.0009  0.0092  0.0084  0.0092  0.0131  0.0001  0.0021  0.0001  0.0000 </r>
       </set>
       <set comment="band 36">
        <r>  0.0018  0.0000  0.0008  0.0000  0.0001  0.0000  0.0118  0.0000  0.0000 </r>
        <r>  0.0000  0.0000  0.0599  0.0000  0.0076  0.0000  0.0002  0.0000  0.0000 </r>
        <r>  0.0009  0.0092  0.0084  0.0092  0.0131  0.0001  0.0021  0.0001  0.0000 </r>
        <r>  0.0009  0.0092  0.0084  0.0092  0.0131  0.0001  0.0021  0.0001  0.0000 </r>
        <r>  0.0006  0.0058  0.0134  0.0058  0.0082  0.0001  0.0013  0.0001  0.0000 </r>
        <r>  0.0006  0.0058  0.0134  0.0058  0.0082  0.0001  0.0013  0.0001  0.0000 </r>
       </set>
       <set comment="band 37">
        <r>  0.0000  0.0149  0.0000  0.0155  0.0000  0.0027  0.0000  0.0026  0.0000 </r>
        <r>  0.0000  0.0155  0.0000  0.0149  0.0000  0.0026  0.0000  0.0027  0.0000 </r>
        <r>  0.0000  0.0001  0.0000  0.0001  0.0000  0.0000  0.0000  0.0000  0.0024 </r>
        <r>  0.0000  0.0001  0.0000  0.0001  0.0000  0.0000  0.0000  0.0000  0.0024 </r>
        <r>  0.0000  0.0000  0.0019  0.0000  0.0000  0.0098  0.0000  0.0098  0.0000 </r>
        <r>  0.0000  0.0000  0.0019  0.0000  0.0000  0.0098  0.0000  0.0098  0.0000 </r>
       </set>
       <set comment="band 38">
        <r>  0.0000  0.0155  0.0000  0.0149  0.0000  0.0026  0.0000  0.0027  0.0000 </r>
        <r>  0.0000  0.0149  0.0000  0.0155  0.0000  0.0027  0.0000  0.0026  0.0000 </r>
        <r>  0.0000  0.0000  0.0019  0.0000  0.0000  0.0098  0.0000  0.0098  0.0000 </r>
        <r>  0.0000  0.0000  0.0019  0.0000  0.0000  0.0098  0.0000  0.0098  0.0000 </r>
        <r>  0.0000  0.0001  0.0000  0.0001  0.0000  0.0000  0.0000  0.0000  0.0024 </r>
        <r>  0.0000  0.0001  0.0000  0.0001  0.0000  0.0000  0.0000  0.0000  0.0024 </r>
       </set>
       <set comment="band 39">
        <r>  0.0000  0.0000  0.0000  0.0000  0.0000  0.0000  0.0000  0.0000  0.0011 </r>
        <r>  0.0000  0.0000  0.0000  0.0000  0.0000  0.0000  0.0000  0.0000  0.0004 </r>
        <r>  0.0000  0.0017  0.0000  0.0017  0.0000  0.0063  0.0000  0.0063  0.0002 </r>
        <r>  0.0000  0.0017  0.0000  0.0017  0.0000  0.0063  0.0000  0.0063  0.0002 </r>
        <r>  0.0000  0.0211  0.0000  0.0211  0.0000  0.0005  0.0000  0.0005  0.0023 </r>
        <r>  0.0000  0.0211  0.0000  0.0211  0.0000  0.0005  0.0000  0.0005  0.0023 </r>
       </set>
       <set comment="band 40">
        <r>  0.0000  0.0000  0.0000  0.0000  0.0000  0.0000  0.0000  0.0000  0.0004 </r>
        <r>  0.0000  0.0000  0.0000  0.0000  0.0000  0.0000  0.0000  0.0000  0.0011 </r>
        <r>  0.0000  0.0211  0.0000  0.0211  0.0000  0.0005  0.0000  0.0005  0.0023 </r>
        <r>  0.0000  0.0211  0.0000  0.0211  0.0000  0.0005  0.0000  0.0005  0.0023 </r>
        <r>  0.0000  0.0017  0.0000  0.0017  0.0000  0.0063  0.0000  0.0063  0.0002 </r>
        <r>  0.0000  0.0017  0.0000  0.0017  0.0000  0.0063  0.0000  0.0063  0.0002 </r>
       </set>
       <set comment="band 41">
        <r>  0.0001  0.0000  0.0057  0.0000  0.0092  0.0000  0.0000  0.0000  0.0000 </r>
        <r>  0.0001  0.0000  0.0036  0.0000  0.0059  0.0000  0.0000  0.0000  0.0000 </r>
        <r>  0.0010  0.0169  0.0000  0.0169  0.0028  0.0000  0.0056  0.0000  0.0000 </r>
        <r>  0.0010  0.0169  0.0000  0.0169  0.0028  0.0000  0.0056  0.0000  0.0000 </r>
        <r>  0.0001  0.0013  0.0004  0.0013  0.0002  0.0002  0.0004  0.0002  0.0000 </r>
        <r>  0.0001  0.0013  0.0004  0.0013  0.0002  0.0002  0.0004  0.0002  0.0000 </r>
       </set>
       <set comment="band 42">
        <r>  0.0001  0.0000  0.0036  0.0000  0.0059  0.0000  0.0000  0.0000  0.0000 </r>
        <r>  0.0001  0.0000  0.0057  0.0000  0.0092  0.0000  0.0000  0.0000  0.0000 </r>
        <r>  0.0001  0.0013  0.0004  0.0013  0.0002  0.0002  0.0004  0.0002  0.0000 </r>
        <r>  0.0001  0.0013  0.0004  0.0013  0.0002  0.0002  0.0004  0.0002  0.0000 </r>
        <r>  0.0010  0.0169  0.0000  0.0169  0.0028  0.0000  0.0056  0.0000  0.0000 </r>
        <r>  0.0010  0.0169  0.0000  0.0169  0.0028  0.0000  0.0056  0.0000  0.0000 </r>
       </set>
       <set comment="band 43">
        <r>  0.0000  0.0010  0.0000  0.0074  0.0000  0.0021  0.0000  0.0003  0.0000 </r>
        <r>  0.0000  0.0074  0.0000  0.0010  0.0000  0.0003  0.0000  0.0021  0.0000 </r>
        <r>  0.0002  0.0013  0.0000  0.0013  0.0041  0.0041  0.0001  0.0041  0.0000 </r>
        <r>  0.0002  0.0013  0.0000  0.0013  0.0041  0.0041  0.0001  0.0041  0.0000 </r>
        <r>  0.0009  0.0048  0.0000  0.0048  0.0152  0.0011  0.0003  0.0011  0.0000 </r>
        <r>  0.0009  0.0048  0.0000  0.0048  0.0152  0.0011  0.0003  0.0011  0.0000 </r>
       </set>
       <set comment="band 44">
        <r>  0.0000  0.0074  0.0000  0.0010  0.0000  0.0003  0.0000  0.0021  0.0000 </r>
        <r>  0.0000  0.0010  0.0000  0.0074  0.0000  0.0021  0.0000  0.0003  0.0000 </r>
        <r>  0.0009  0.0048  0.0000  0.0048  0.0152  0.0011  0.0003  0.0011  0.0000 </r>
        <r>  0.0009  0.0048  0.0000  0.0048  0.0152  0.0011  0.0003  0.0011  0.0000 </r>
        <r>  0.0002  0.0013  0.0000  0.0013  0.0041  0.0041  0.0001  0.0041  0.0000 </r>
        <r>  0.0002  0.0013  0.0000  0.0013  0.0041  0.0041  0.0001  0.0041  0.0000 </r>
       </set>
       <set comment="band 45">
        <r>  0.0000  0.0000  0.0000  0.0000  0.0000  0.0000  0.0000  0.0000  0.0324 </r>
        <r>  0.0000  0.0000  0.0000  0.0000  0.0000  0.0000  0.0000  0.0000  0.0187 </r>
        <r>  0.0000  0.0004  0.0000  0.0004  0.0000  0.0002  0.0000  0.0002  0.0364 </r>
        <r>  0.0000  0.0004  0.0000  0.0004  0.0000  0.0002  0.0000  0.0002  0.0364 </r>
        <r>  0.0000  0.0000  0.0000  0.0000  0.0000  0.0123  0.0000  0.0123  0.0007 </r>
        <r>  0.0000  0.0000  0.0000  0.0000  0.0000  0.0123  0.0000  0.0123  0.0007 </r>
       </set>
       <set comment="band 46">
        <r>  0.0000  0.0000  0.0000  0.0000  0.0000  0.0000  0.0000  0.0000  0.0187 </r>
        <r>  0.0000  0.0000  0.0000  0.0000  0.0000  0.0000  0.0000  0.0000  0.0324 </r>
        <r>  0.0000  0.0000  0.0000  0.0000  0.0000  0.0123  0.0000  0.0123  0.0007 </r>
        <r>  0.0000  0.0000  0.0000  0.0000  0.0000  0.0123  0.0000  0.0123  0.0007 </r>
        <r>  0.0000  0.0004  0.0000  0.0004  0.0000  0.0002  0.0000  0.0002  0.0364 </r>
        <r>  0.0000  0.0004  0.0000  0.0004  0.0000  0.0002  0.0000  0.0002  0.0364 </r>
       </set>
       <set comment="band 47">
        <r>  0.0001  0.0000  0.0780  0.0000  0.0086  0.0000  0.0000  0.0000  0.0000 </r>
        <r>  0.0035  0.0000  0.0014  0.0000  0.0002  0.0000  0.0001  0.0000  0.0000 </r>
        <r>  0.0059  0.0004  0.0003  0.0004  0.0016  0.0023  0.0067  0.0022  0.0000 </r>
        <r>  0.0043  0.0008  0.0003  0.0008  0.0020  0.0022  0.0095  0.0023  0.0000 </r>
        <r>  0.0054  0.0006  0.0003  0.0006  0.0018  0.0024  0.0076  0.0021  0.0000 </r>
        <r>  0.0048  0.0007  0.0003  0.0007  0.0019  0.0021  0.0088  0.0024  0.0000 </r>
       </set>
       <set comment="band 48">
        <r>  0.0034  0.0001  0.0014  0.0000  0.0002  0.0000  0.0001  0.0000  0.0000 </r>
        <r>  0.0001  0.0000  0.0768  0.0001  0.0084  0.0000  0.0000  0.0000  0.0000 </r>
        <r>  0.0042  0.0008  0.0003  0.0008  0.0020  0.0019  0.0097  0.0025  0.0000 </r>
        <r>  0.0059  0.0004  0.0003  0.0004  0.0016  0.0025  0.0066  0.0019  0.0000 </r>
        <r>  0.0037  0.0011  0.0003  0.0011  0.0022  0.0020  0.0112  0.0024  0.0000 </r>
        <r>  0.0067  0.0004  0.0003  0.0004  0.0014  0.0024  0.0058  0.0020  0.0000 </r>
       </set>
      </set>
     </set>
    </set>
   </array>
  </projected>
 </calculation>
 <structure name="finalpos" >
  <crystal>
   <varray name="basis" >
    <v>       8.54774287       0.00000000       0.00000000 </v>
    <v>       0.00000000       8.54774287       0.00000000 </v>
    <v>       0.00000000       0.00000000       7.12734328 </v>
   </varray>
   <i name="volume">    520.75155532 </i>
   <varray name="rec_basis" >
    <v>       0.11698995       0.00000000       0.00000000 </v>
    <v>       0.00000000       0.11698995       0.00000000 </v>
    <v>       0.00000000       0.00000000       0.14030473 </v>
   </varray>
  </crystal>
  <varray name="positions" >
   <v>       0.50000000       0.50000000       0.25000000 </v>
   <v>       0.50000000       0.50000000       0.75000000 </v>
   <v>       0.68110312       0.68110311       0.00000000 </v>
   <v>       0.31889689       0.31889689       0.00000000 </v>
   <v>       0.31889689       0.68110311       0.50000000 </v>
   <v>       0.68110312       0.31889689       0.50000000 </v>
  </varray>
 </structure>
</modeling>
