<?xml version="1.0" encoding="ISO-8859-1"?>
<modeling>
 <generator>
  <i name="program" type="string">vasp </i>
  <i name="version" type="string">5.4.4.18Apr17-6-g9f103f2a35  </i>
  <i name="subversion" type="string">(build May 25 2018 14:11:39) complex            parallel </i>
  <i name="platform" type="string">LinuxIFC </i>
  <i name="date" type="string">2018 11 08 </i>
  <i name="time" type="string">16:46:06 </i>
 </generator>
 <incar>
  <i type="string" name="SYSTEM"> InTe2 wire phonons</i>
  <i type="string" name="PREC">accurate</i>
  <i type="string" name="ALGO"> Normal</i>
  <i type="logical" name="ADDGRID"> T  </i>
  <i type="int" name="NELMDL">    -5</i>
  <i type="int" name="IBRION">     8</i>
  <i name="EDIFF">      0.00010000</i>
  <i type="int" name="NSW">     1</i>
  <i type="int" name="ISIF">     2</i>
  <i type="int" name="ISYM">     0</i>
  <i name="ENCUT">    520.00000000</i>
  <i name="POTIM">      0.50000000</i>
  <i type="logical" name="LREAL"> F  </i>
  <i type="int" name="ISMEAR">     0</i>
  <i name="SIGMA">      0.05000000</i>
  <i type="int" name="NWRITE">     3</i>
  <i type="logical" name="LWAVE"> F  </i>
  <i type="logical" name="LCHARG"> F  </i>
  <v type="int" name="KPOINT_BSE">    -1     0     0     0</v>
 </incar>
 <structure name="primitive_cell" >
  <crystal>
   <varray name="basis" >
    <v>       8.54774287       0.00000000       0.00000000 </v>
    <v>       0.00000000       8.54774287       0.00000000 </v>
    <v>       0.00000000       0.00000000       7.12734328 </v>
   </varray>
   <i name="volume">    520.75155532 </i>
   <varray name="rec_basis" >
    <v>       0.11698995       0.00000000       0.00000000 </v>
    <v>       0.00000000       0.11698995       0.00000000 </v>
    <v>       0.00000000       0.00000000       0.14030473 </v>
   </varray>
  </crystal>
  <varray name="positions" >
   <v>      -0.50000000      -0.50000000       0.25000000 </v>
   <v>       0.31889689       0.31889689       0.00000000 </v>
   <v>       0.31889689      -0.31889689      -0.50000000 </v>
   <v>      -0.31889688      -0.31889689       0.00000000 </v>
   <v>      -0.31889688       0.31889689      -0.50000000 </v>
   <v>      -0.50000000      -0.50000000      -0.25000000 </v>
  </varray>
 </structure>
 <varray name="primitive_index" >
  <v type="int" >        1 </v>
  <v type="int" >        4 </v>
  <v type="int" >        5 </v>
  <v type="int" >        3 </v>
  <v type="int" >        6 </v>
  <v type="int" >        2 </v>
 </varray>
 <kpoints>
  <generation param="Gamma">
   <v type="int" name="divisions">       1        1       16 </v>
   <v name="usershift">      0.00000000       0.00000000       0.00000000 </v>
   <v name="genvec1">      1.00000000       0.00000000       0.00000000 </v>
   <v name="genvec2">      0.00000000       1.00000000       0.00000000 </v>
   <v name="genvec3">      0.00000000       0.00000000       0.06250000 </v>
   <v name="shift">      0.00000000       0.00000000       0.00000000 </v>
  </generation>
  <varray name="kpointlist" >
   <v>       0.00000000       0.00000000       0.00000000 </v>
   <v>       0.00000000       0.00000000       0.06250000 </v>
   <v>       0.00000000       0.00000000       0.12500000 </v>
   <v>       0.00000000       0.00000000       0.18750000 </v>
   <v>       0.00000000       0.00000000       0.25000000 </v>
   <v>       0.00000000       0.00000000       0.31250000 </v>
   <v>       0.00000000       0.00000000       0.37500000 </v>
   <v>       0.00000000       0.00000000       0.43750000 </v>
   <v>       0.00000000       0.00000000       0.50000000 </v>
  </varray>
  <varray name="weights" >
   <v>       0.06250000 </v>
   <v>       0.12500000 </v>
   <v>       0.12500000 </v>
   <v>       0.12500000 </v>
   <v>       0.12500000 </v>
   <v>       0.12500000 </v>
   <v>       0.12500000 </v>
   <v>       0.12500000 </v>
   <v>       0.06250000 </v>
  </varray>
 </kpoints>
 <parameters>
  <separator name="general" >
   <i type="string" name="SYSTEM">InTe2 wire phonons</i>
   <i type="logical" name="LCOMPAT"> F  </i>
  </separator>
  <separator name="electronic" >
   <i type="string" name="PREC">accura</i>
   <i name="ENMAX">    520.00000000</i>
   <i name="ENAUG">    449.70400000</i>
   <i name="EDIFF">      0.00010000</i>
   <i type="int" name="IALGO">    38</i>
   <i type="int" name="IWAVPR">    11</i>
   <i type="int" name="NBANDS">    32</i>
   <i name="NELECT">     50.00000000</i>
   <i type="int" name="TURBO">     0</i>
   <i type="int" name="IRESTART">     0</i>
   <i type="int" name="NREBOOT">     0</i>
   <i type="int" name="NMIN">     0</i>
   <i name="EREF">      0.00000000</i>
   <separator name="electronic smearing" >
    <i type="int" name="ISMEAR">     0</i>
    <i name="SIGMA">      0.05000000</i>
    <i name="KSPACING">      0.50000000</i>
    <i type="logical" name="KGAMMA"> T  </i>
   </separator>
   <separator name="electronic projectors" >
    <i type="logical" name="LREAL"> F  </i>
    <v name="ROPT">      0.00000000      0.00000000</v>
    <i type="int" name="LMAXPAW">  -100</i>
    <i type="int" name="LMAXMIX">     2</i>
    <i type="logical" name="NLSPLINE"> F  </i>
   </separator>
   <separator name="electronic startup" >
    <i type="int" name="ISTART">     0</i>
    <i type="int" name="ICHARG">     2</i>
    <i type="int" name="INIWAV">     1</i>
   </separator>
   <separator name="electronic spin" >
    <i type="int" name="ISPIN">     1</i>
    <i type="logical" name="LNONCOLLINEAR"> F  </i>
    <v name="MAGMOM">      1.00000000      1.00000000      1.00000000      1.00000000      1.00000000      1.00000000</v>
    <i name="NUPDOWN">     -1.00000000</i>
    <i type="logical" name="LSORBIT"> F  </i>
    <v name="SAXIS">      0.00000000      0.00000000      1.00000000</v>
    <i type="logical" name="LSPIRAL"> F  </i>
    <v name="QSPIRAL">      0.00000000      0.00000000      0.00000000</v>
    <i type="logical" name="LZEROZ"> F  </i>
   </separator>
   <separator name="electronic exchange-correlation" >
    <i type="logical" name="LASPH"> F  </i>
    <i type="logical" name="LMETAGGA"> F  </i>
   </separator>
   <separator name="electronic convergence" >
    <i type="int" name="NELM">    60</i>
    <i type="int" name="NELMDL">    -5</i>
    <i type="int" name="NELMIN">     2</i>
    <i name="ENINI">    520.00000000</i>
    <separator name="electronic convergence detail" >
     <i type="logical" name="LDIAG"> T  </i>
     <i type="logical" name="LSUBROT"> F  </i>
     <i name="WEIMIN">      0.00100000</i>
     <i name="EBREAK">      0.00000078</i>
     <i name="DEPER">      0.30000000</i>
     <i type="int" name="NRMM">     4</i>
     <i name="TIME">      0.40000000</i>
    </separator>
   </separator>
   <separator name="electronic mixer" >
    <i name="AMIX">      0.40000000</i>
    <i name="BMIX">      1.00000000</i>
    <i name="AMIN">      0.10000000</i>
    <i name="AMIX_MAG">      1.60000000</i>
    <i name="BMIX_MAG">      1.00000000</i>
    <separator name="electronic mixer details" >
     <i type="int" name="IMIX">     4</i>
     <i type="logical" name="MIXFIRST"> F  </i>
     <i type="int" name="MAXMIX">   -45</i>
     <i name="WC">    100.00000000</i>
     <i type="int" name="INIMIX">     1</i>
     <i type="int" name="MIXPRE">     1</i>
     <i type="int" name="MREMOVE">     5</i>
    </separator>
   </separator>
   <separator name="electronic dipolcorrection" >
    <i type="logical" name="LDIPOL"> F  </i>
    <i type="logical" name="LMONO"> F  </i>
    <i type="int" name="IDIPOL">     0</i>
    <i name="EPSILON">      1.00000000</i>
    <v name="DIPOL">   -100.00000000   -100.00000000   -100.00000000</v>
    <i name="EFIELD">      0.00000000</i>
   </separator>
  </separator>
  <separator name="grids" >
   <i type="int" name="NGX">    64</i>
   <i type="int" name="NGY">    64</i>
   <i type="int" name="NGZ">    54</i>
   <i type="int" name="NGXF">   128</i>
   <i type="int" name="NGYF">   128</i>
   <i type="int" name="NGZF">   108</i>
   <i type="logical" name="ADDGRID"> T  </i>
  </separator>
  <separator name="ionic" >
   <i type="int" name="NSW">     1</i>
   <i type="int" name="IBRION">     8</i>
   <i type="int" name="MDALGO">     0</i>
   <i type="int" name="ISIF">     2</i>
   <i name="PSTRESS">      0.00000000</i>
   <i name="EDIFFG">      0.00100000</i>
   <i type="int" name="NFREE">     0</i>
   <i name="POTIM">      0.50000000</i>
   <i name="SMASS">     -3.00000000</i>
   <i name="SCALEE">      1.00000000</i>
  </separator>
  <separator name="ionic md" >
   <i name="TEBEG">      0.00010000</i>
   <i name="TEEND">      0.00010000</i>
   <i type="int" name="NBLOCK">     1</i>
   <i type="int" name="KBLOCK">     1</i>
   <i type="int" name="NPACO">   256</i>
   <i name="APACO">     16.00000000</i>
  </separator>
  <separator name="symmetry" >
   <i type="int" name="ISYM">     0</i>
   <i name="SYMPREC">      0.00001000</i>
  </separator>
  <separator name="dos" >
   <i type="int" name="LORBIT">     0</i>
   <v name="RWIGS">     -1.00000000     -1.00000000</v>
   <i type="int" name="NEDOS">   301</i>
   <i name="EMIN">     10.00000000</i>
   <i name="EMAX">    -10.00000000</i>
   <i name="EFERMI">      0.00000000</i>
  </separator>
  <separator name="writing" >
   <i type="int" name="NWRITE">     3</i>
   <i type="logical" name="LWAVE"> F  </i>
   <i type="logical" name="LDOWNSAMPLE"> F  </i>
   <i type="logical" name="LCHARG"> F  </i>
   <i type="logical" name="LPARD"> F  </i>
   <i type="logical" name="LVTOT"> F  </i>
   <i type="logical" name="LVHAR"> F  </i>
   <i type="logical" name="LELF"> F  </i>
   <i type="logical" name="LOPTICS"> F  </i>
   <v name="STM">      0.00000000      0.00000000      0.00000000      0.00000000      0.00000000      0.00000000      0.00000000</v>
  </separator>
  <separator name="performance" >
   <i type="int" name="NPAR">    16</i>
   <i type="int" name="NSIM">     4</i>
   <i type="int" name="NBLK">    -1</i>
   <i type="logical" name="LPLANE"> T  </i>
   <i type="logical" name="LSCALAPACK"> T  </i>
   <i type="logical" name="LSCAAWARE"> F  </i>
   <i type="logical" name="LSCALU"> F  </i>
   <i type="logical" name="LASYNC"> F  </i>
   <i type="logical" name="LORBITALREAL"> F  </i>
  </separator>
  <separator name="miscellaneous" >
   <i type="int" name="IDIOT">     3</i>
   <i type="int" name="ISPECIAL">     0</i>
   <i type="logical" name="LMUSIC"> F  </i>
   <v name="POMASS">    114.82000000    127.60000000</v>
   <v name="DARWINR">      0.00000000      0.00000000</v>
   <v name="DARWINV">      1.00000000      1.00000000</v>
   <i type="logical" name="LCORR"> T  </i>
  </separator>
  <i type="logical" name="GGA_COMPAT"> T  </i>
  <i type="logical" name="LBERRY"> F  </i>
  <i type="int" name="ICORELEVEL">     0</i>
  <i type="logical" name="LDAU"> F  </i>
  <i type="int" name="I_CONSTRAINED_M">     0</i>
  <separator name="electronic exchange-correlation" >
   <i type="string" name="GGA">--</i>
   <i type="int" name="VOSKOWN">     0</i>
   <i type="logical" name="LHFCALC"> F  </i>
   <i type="string" name="PRECFOCK"></i>
   <i type="logical" name="LSYMGRAD"> F  </i>
   <i type="logical" name="LHFONE"> F  </i>
   <i type="logical" name="LRHFCALC"> F  </i>
   <i type="logical" name="LTHOMAS"> F  </i>
   <i type="logical" name="LMODELHF"> F  </i>
   <i name="ENCUT4O">     -1.00000000</i>
   <i type="int" name="EXXOEP">     0</i>
   <i type="int" name="FOURORBIT">     0</i>
   <i name="AEXX">      0.00000000</i>
   <i name="HFALPHA">      0.00000000</i>
   <i name="MCALPHA">      0.00000000</i>
   <i name="ALDAX">      1.00000000</i>
   <i name="AGGAX">      1.00000000</i>
   <i name="ALDAC">      1.00000000</i>
   <i name="AGGAC">      1.00000000</i>
   <i type="int" name="NKREDX">     1</i>
   <i type="int" name="NKREDY">     1</i>
   <i type="int" name="NKREDZ">     1</i>
   <i type="logical" name="SHIFTRED"> F  </i>
   <i type="logical" name="ODDONLY"> F  </i>
   <i type="logical" name="EVENONLY"> F  </i>
   <i type="int" name="LMAXFOCK">     0</i>
   <i type="int" name="NMAXFOCKAE">     0</i>
   <i type="logical" name="LFOCKAEDFT"> F  </i>
   <i name="HFSCREEN">      0.00000000</i>
   <i name="HFSCREENC">      0.00000000</i>
   <i type="int" name="NBANDSGWLOW">     0</i>
  </separator>
  <separator name="vdW DFT" >
   <i type="logical" name="LUSE_VDW"> F  </i>
   <i name="Zab_VDW">     -0.84910000</i>
   <i name="PARAM1">      0.12340000</i>
   <i name="PARAM2">      1.00000000</i>
   <i name="PARAM3">      0.00000000</i>
  </separator>
  <separator name="model GW" >
   <i type="int" name="MODEL_GW">     0</i>
   <i name="MODEL_EPS0">     52.07515553</i>
   <i name="MODEL_ALPHA">      1.00000000</i>
  </separator>
  <separator name="linear response parameters" >
   <i type="logical" name="LEPSILON"> F  </i>
   <i type="logical" name="LRPA"> F  </i>
   <i type="logical" name="LNABLA"> F  </i>
   <i type="logical" name="LVEL"> F  </i>
   <i type="int" name="KINTER">     0</i>
   <i name="CSHIFT">      0.10000000</i>
   <i name="OMEGAMAX">     -1.00000000</i>
   <i name="DEG_THRESHOLD">      0.00200000</i>
   <i name="RTIME">     -0.10000000</i>
   <i name="WPLASMAI">      0.00000000</i>
   <v name="DFIELD">      0.00000000      0.00000000      0.00000000</v>
   <v name="WPLASMA">      0.00000000      0.00000000      0.00000000      0.00000000      0.00000000      0.00000000      0.00000000      0.00000000      0.00000000</v>
  </separator>
  <separator name="orbital magnetization" >
   <i type="logical" name="NUCIND"> F  </i>
   <v name="MAGPOS">      0.00000000      0.00000000      0.00000000</v>
   <i type="logical" name="LNICSALL"> T  </i>
   <i type="logical" name="ORBITALMAG"> F  </i>
   <i type="logical" name="LMAGBLOCH"> F  </i>
   <i type="logical" name="LCHIMAG"> F  </i>
   <i type="logical" name="LGAUGE"> T  </i>
   <i type="int" name="MAGATOM">     0</i>
   <v name="MAGDIPOL">      0.00000000      0.00000000      0.00000000</v>
   <v name="AVECCONST">      0.00000000      0.00000000      0.00000000</v>
  </separator>
  <separator name="response functions" >
   <i type="logical" name="LADDER"> F  </i>
   <i type="logical" name="LRPAFORCE"> F  </i>
   <i type="logical" name="LFXC"> F  </i>
   <i type="logical" name="LHARTREE"> T  </i>
   <i type="int" name="IBSE">     0</i>
   <v type="int" name="KPOINT">    -1     0     0     0</v>
   <i type="logical" name="LTCTE"> F  </i>
   <i type="logical" name="LTETE"> F  </i>
   <i type="logical" name="LTRIPLET"> F  </i>
   <i type="logical" name="LFXCEPS"> F  </i>
   <i type="logical" name="LFXHEG"> F  </i>
   <i type="int" name="NATURALO">     2</i>
   <i type="logical" name="L2ORDER"> F  </i>
   <i type="logical" name="LMP2LT"> F  </i>
   <i type="logical" name="LUSEW"> F  </i>
   <i name="ENCUTGW">     -2.00000000</i>
   <i name="ENCUTGWSOFT">     -2.00000000</i>
   <i name="ENCUTLF">     -1.00000000</i>
   <i type="int" name="LMAXMP2">    -1</i>
   <i name="SCISSOR">      0.00000000</i>
   <i type="int" name="NOMEGA">     0</i>
   <i type="int" name="NOMEGAR">     0</i>
   <i type="int" name="NBANDSGW">    -1</i>
   <i type="int" name="NBANDSO">    -1</i>
   <i type="int" name="NBANDSV">    -1</i>
   <i type="int" name="NELM">     1</i>
   <i type="int" name="NELMHF">     1</i>
   <i type="int" name="DIM">     3</i>
   <i type="int" name="ANTIRES">     0</i>
   <i name="OMEGAMAX">    -30.00000000</i>
   <i name="OMEGAMIN">    -30.00000000</i>
   <i name="OMEGATL">   -200.00000000</i>
   <i type="int" name="OMEGAGRID">   140</i>
   <i name="CSHIFT">     -0.10000000</i>
   <i type="logical" name="SELFENERGY"> F  </i>
   <i type="logical" name="LSPECTRAL"> F  </i>
   <i type="logical" name="LSPECTRALGW"> F  </i>
   <i type="logical" name="LSINGLES"> F  </i>
   <i type="logical" name="LFERMIGW"> F  </i>
   <i type="logical" name="ODDONLYGW"> F  </i>
   <i type="logical" name="EVENONLYGW"> F  </i>
   <i type="int" name="NKREDLFX">     1</i>
   <i type="int" name="NKREDLFY">     1</i>
   <i type="int" name="NKREDLFZ">     1</i>
   <i type="int" name="MAXMEM">  2800</i>
   <i type="int" name="TELESCOPE">     0</i>
   <i type="int" name="TAUPAR">     1</i>
   <i type="int" name="OMEGAPAR">    -1</i>
   <i name="LAMBDA">      1.00000000</i>
  </separator>
  <separator name="External order field" >
   <i name="OFIELD_KAPPA">      0.00000000</i>
   <v name="OFIELD_K">      0.00000000      0.00000000      0.00000000</v>
   <i name="OFIELD_Q6_NEAR">      0.00000000</i>
   <i name="OFIELD_Q6_FAR">      0.00000000</i>
   <i name="OFIELD_A">      0.00000000</i>
  </separator>
 </parameters>
 <atominfo>
  <atoms>       6 </atoms>
  <types>       2 </types>
  <array name="atoms" >
   <dimension dim="1">ion</dimension>
   <field type="string">element</field>
   <field type="int">atomtype</field>
   <set>
    <rc><c>In</c><c>   1</c></rc>
    <rc><c>In</c><c>   1</c></rc>
    <rc><c>Te</c><c>   2</c></rc>
    <rc><c>Te</c><c>   2</c></rc>
    <rc><c>Te</c><c>   2</c></rc>
    <rc><c>Te</c><c>   2</c></rc>
   </set>
  </array>
  <array name="atomtypes" >
   <dimension dim="1">type</dimension>
   <field type="int">atomspertype</field>
   <field type="string">element</field>
   <field>mass</field>
   <field>valence</field>
   <field type="string">pseudopotential</field>
   <set>
    <rc><c>   2</c><c>In</c><c>    114.82000000</c><c>     13.00000000</c><c>  PAW_PBE In_d 06Sep2000                </c></rc>
    <rc><c>   4</c><c>Te</c><c>    127.60000000</c><c>      6.00000000</c><c>  PAW_PBE Te 08Apr2002                  </c></rc>
   </set>
  </array>
 </atominfo>
 <structure name="initialpos" >
  <crystal>
   <varray name="basis" >
    <v>       8.54774287       0.00000000       0.00000000 </v>
    <v>       0.00000000       8.54774287       0.00000000 </v>
    <v>       0.00000000       0.00000000       7.12734328 </v>
   </varray>
   <i name="volume">    520.75155532 </i>
   <varray name="rec_basis" >
    <v>       0.11698995       0.00000000       0.00000000 </v>
    <v>       0.00000000       0.11698995       0.00000000 </v>
    <v>       0.00000000       0.00000000       0.14030473 </v>
   </varray>
  </crystal>
  <varray name="positions" >
   <v>       0.50000000       0.50000000       0.25000000 </v>
   <v>       0.50000000       0.50000000       0.75000000 </v>
   <v>       0.68110312       0.68110311       0.00000000 </v>
   <v>       0.31889689       0.31889689       0.00000000 </v>
   <v>       0.31889689       0.68110311       0.50000000 </v>
   <v>       0.68110312       0.31889689       0.50000000 </v>
  </varray>
 </structure>
 <calculation>
  <scstep>
   <time name="dav">    0.36    0.38</time>
   <time name="total">    0.42    0.44</time>
   <energy>
    <i name="alphaZ">     15.22038120 </i>
    <i name="ewald">   -972.21341394 </i>
    <i name="hartreedc">  -2770.70198379 </i>
    <i name="XCdc">    -31.15912959 </i>
    <i name="pawpsdc">   3592.85715310 </i>
    <i name="pawaedc">  -3420.30431150 </i>
    <i name="eentropy">     -0.00382443 </i>
    <i name="bandstr">   -120.08924480 </i>
    <i name="atom">   4046.74041765 </i>
    <i name="e_fr_energy">    340.34604390 </i>
    <i name="e_wo_entrp">    340.34986833 </i>
    <i name="e_0_energy">    340.34795612 </i>
   </energy>
  </scstep>
  <scstep>
   <time name="dav">    0.53    0.56</time>
   <time name="total">    0.53    0.56</time>
   <energy>
    <i name="e_fr_energy">      9.41969101 </i>
    <i name="e_wo_entrp">      9.43343559 </i>
    <i name="e_0_energy">      9.42656330 </i>
   </energy>
  </scstep>
  <scstep>
   <time name="dav">    0.47    0.47</time>
   <time name="total">    0.47    0.47</time>
   <energy>
    <i name="e_fr_energy">    -16.48544914 </i>
    <i name="e_wo_entrp">    -16.45600870 </i>
    <i name="e_0_energy">    -16.47072892 </i>
   </energy>
  </scstep>
  <scstep>
   <time name="dav">    0.53    0.53</time>
   <time name="total">    0.54    0.53</time>
   <energy>
    <i name="e_fr_energy">    -17.21209062 </i>
    <i name="e_wo_entrp">    -17.18253910 </i>
    <i name="e_0_energy">    -17.19731486 </i>
   </energy>
  </scstep>
  <scstep>
   <time name="dav">    0.57    0.57</time>
   <time name="total">    0.62    0.63</time>
   <energy>
    <i name="e_fr_energy">    -17.21930293 </i>
    <i name="e_wo_entrp">    -17.18975021 </i>
    <i name="e_0_energy">    -17.20452657 </i>
   </energy>
  </scstep>
  <scstep>
   <time name="dav">    0.41    0.41</time>
   <time name="total">    0.53    0.53</time>
   <energy>
    <i name="e_fr_energy">    -17.00494839 </i>
    <i name="e_wo_entrp">    -16.97494587 </i>
    <i name="e_0_energy">    -16.98994713 </i>
   </energy>
  </scstep>
  <scstep>
   <time name="dav">    0.39    0.39</time>
   <time name="total">    0.51    0.51</time>
   <energy>
    <i name="e_fr_energy">    -16.95507615 </i>
    <i name="e_wo_entrp">    -16.92255922 </i>
    <i name="e_0_energy">    -16.93881769 </i>
   </energy>
  </scstep>
  <scstep>
   <time name="dav">    0.39    0.39</time>
   <time name="total">    0.51    0.51</time>
   <energy>
    <i name="e_fr_energy">    -16.95438221 </i>
    <i name="e_wo_entrp">    -16.92185231 </i>
    <i name="e_0_energy">    -16.93811726 </i>
   </energy>
  </scstep>
  <scstep>
   <time name="dav">    0.40    0.40</time>
   <time name="total">    0.52    0.52</time>
   <energy>
    <i name="e_fr_energy">    -16.95471468 </i>
    <i name="e_wo_entrp">    -16.92216424 </i>
    <i name="e_0_energy">    -16.93843946 </i>
   </energy>
  </scstep>
  <scstep>
   <time name="dav">    0.29    0.29</time>
   <time name="total">    0.41    0.42</time>
   <energy>
    <i name="e_fr_energy">    -16.95537136 </i>
    <i name="e_wo_entrp">    -16.92308946 </i>
    <i name="e_0_energy">    -16.93923041 </i>
   </energy>
  </scstep>
  <scstep>
   <time name="dav">    0.36    0.36</time>
   <time name="total">    0.49    0.49</time>
   <energy>
    <i name="e_fr_energy">    -16.95497788 </i>
    <i name="e_wo_entrp">    -16.92269991 </i>
    <i name="e_0_energy">    -16.93883890 </i>
   </energy>
  </scstep>
  <scstep>
   <time name="dav">    0.33    0.33</time>
   <time name="total">    0.41    0.41</time>
   <energy>
    <i name="alphaZ">     15.22038120 </i>
    <i name="ewald">   -972.21341394 </i>
    <i name="hartreedc">  -2773.62711197 </i>
    <i name="XCdc">    -30.52789617 </i>
    <i name="pawpsdc">   5369.71808726 </i>
    <i name="pawaedc">  -5197.18170002 </i>
    <i name="eentropy">     -0.03211039 </i>
    <i name="bandstr">   -475.05164783 </i>
    <i name="atom">   4046.74041765 </i>
    <i name="e_fr_energy">    -16.95499421 </i>
    <i name="e_wo_entrp">    -16.92288382 </i>
    <i name="e_0_energy">    -16.93893902 </i>
   </energy>
  </scstep>
  <structure>
   <crystal>
    <varray name="basis" >
     <v>       8.54774287       0.00000000       0.00000000 </v>
     <v>       0.00000000       8.54774287       0.00000000 </v>
     <v>       0.00000000       0.00000000       7.12734328 </v>
    </varray>
    <i name="volume">    520.75155532 </i>
    <varray name="rec_basis" >
     <v>       0.11698995       0.00000000       0.00000000 </v>
     <v>       0.00000000       0.11698995       0.00000000 </v>
     <v>       0.00000000       0.00000000       0.14030473 </v>
    </varray>
   </crystal>
   <varray name="positions" >
    <v>       0.50000000       0.50000000       0.25000000 </v>
    <v>       0.50000000       0.50000000       0.75000000 </v>
    <v>       0.68110312       0.68110311       0.00000000 </v>
    <v>       0.31889689       0.31889689       0.00000000 </v>
    <v>       0.31889689       0.68110311       0.50000000 </v>
    <v>       0.68110312       0.31889689       0.50000000 </v>
   </varray>
  </structure>
  <varray name="forces" >
   <v>      -0.00050740       0.00038339      -0.00122501 </v>
   <v>      -0.00050894       0.00037932       0.00122931 </v>
   <v>       0.00975186       0.00948563      -0.00000959 </v>
   <v>      -0.00941412      -0.00976169       0.00000137 </v>
   <v>      -0.01040617       0.01051269       0.00000456 </v>
   <v>       0.01108477      -0.01099935      -0.00000063 </v>
  </varray>
  <varray name="stress" >
   <v>      -0.03663125      -0.00513549      -0.00007648 </v>
   <v>      -0.00513555      -0.03715482      -0.00009911 </v>
   <v>      -0.00007647      -0.00009915      -1.27861736 </v>
  </varray>
  <energy>
   <i name="e_fr_energy">    -16.95499421 </i>
   <i name="e_wo_entrp">    -16.93893902 </i>
   <i name="e_0_energy">     -0.03211039 </i>
  </energy>
  <scstep>
   <time name="total">    0.48    0.48</time>
   <energy>
    <i name="e_fr_energy">   -594.07853977 </i>
    <i name="e_wo_entrp">   -594.07852708 </i>
    <i name="e_0_energy">   -594.07853343 </i>
   </energy>
  </scstep>
  <scstep>
   <time name="total">    0.56    0.56</time>
   <energy>
    <i name="e_fr_energy">   -600.63421933 </i>
    <i name="e_wo_entrp">   -600.63420772 </i>
    <i name="e_0_energy">   -600.63421352 </i>
   </energy>
  </scstep>
  <scstep>
   <time name="total">    0.59    0.59</time>
   <energy>
    <i name="e_fr_energy">   -603.35532287 </i>
    <i name="e_wo_entrp">   -603.35535415 </i>
    <i name="e_0_energy">   -603.35533851 </i>
   </energy>
  </scstep>
  <scstep>
   <time name="total">    0.58    0.58</time>
   <energy>
    <i name="e_fr_energy">   -599.78974359 </i>
    <i name="e_wo_entrp">   -599.78973962 </i>
    <i name="e_0_energy">   -599.78974161 </i>
   </energy>
  </scstep>
  <scstep>
   <time name="total">    0.58    0.58</time>
   <energy>
    <i name="e_fr_energy">   -599.30121361 </i>
    <i name="e_wo_entrp">   -599.30120330 </i>
    <i name="e_0_energy">   -599.30120845 </i>
   </energy>
  </scstep>
  <scstep>
   <time name="total">    0.63    0.63</time>
   <energy>
    <i name="e_fr_energy">   -599.24649521 </i>
    <i name="e_wo_entrp">   -599.24650051 </i>
    <i name="e_0_energy">   -599.24649786 </i>
   </energy>
  </scstep>
  <scstep>
   <time name="total">    0.42    0.42</time>
   <energy>
    <i name="e_fr_energy">   -594.07850931 </i>
    <i name="e_wo_entrp">   -594.07845998 </i>
    <i name="e_0_energy">   -594.07848464 </i>
   </energy>
  </scstep>
  <scstep>
   <time name="total">    0.57    0.57</time>
   <energy>
    <i name="e_fr_energy">   -600.69451362 </i>
    <i name="e_wo_entrp">   -600.69446305 </i>
    <i name="e_0_energy">   -600.69448833 </i>
   </energy>
  </scstep>
  <scstep>
   <time name="total">    0.58    0.58</time>
   <energy>
    <i name="e_fr_energy">   -603.49220850 </i>
    <i name="e_wo_entrp">   -603.49233549 </i>
    <i name="e_0_energy">   -603.49227200 </i>
   </energy>
  </scstep>
  <scstep>
   <time name="total">    0.58    0.58</time>
   <energy>
    <i name="e_fr_energy">   -599.79883413 </i>
    <i name="e_wo_entrp">   -599.79882303 </i>
    <i name="e_0_energy">   -599.79882858 </i>
   </energy>
  </scstep>
  <scstep>
   <time name="total">    0.58    0.58</time>
   <energy>
    <i name="e_fr_energy">   -599.29350049 </i>
    <i name="e_wo_entrp">   -599.29349726 </i>
    <i name="e_0_energy">   -599.29349888 </i>
   </energy>
  </scstep>
  <scstep>
   <time name="total">    0.58    0.58</time>
   <energy>
    <i name="e_fr_energy">   -599.16539720 </i>
    <i name="e_wo_entrp">   -599.16539712 </i>
    <i name="e_0_energy">   -599.16539716 </i>
   </energy>
  </scstep>
  <scstep>
   <time name="total">    0.42    0.42</time>
   <energy>
    <i name="e_fr_energy">   -594.76011955 </i>
    <i name="e_wo_entrp">   -594.76017251 </i>
    <i name="e_0_energy">   -594.76014603 </i>
   </energy>
  </scstep>
  <scstep>
   <time name="total">    0.56    0.56</time>
   <energy>
    <i name="e_fr_energy">   -599.72183393 </i>
    <i name="e_wo_entrp">   -599.72175167 </i>
    <i name="e_0_energy">   -599.72179280 </i>
   </energy>
  </scstep>
  <scstep>
   <time name="total">    0.67    0.67</time>
   <energy>
    <i name="e_fr_energy">   -599.26295887 </i>
    <i name="e_wo_entrp">   -599.26264710 </i>
    <i name="e_0_energy">   -599.26280299 </i>
   </energy>
  </scstep>
  <scstep>
   <time name="total">    0.58    0.58</time>
   <energy>
    <i name="e_fr_energy">   -599.04920589 </i>
    <i name="e_wo_entrp">   -599.04916473 </i>
    <i name="e_0_energy">   -599.04918531 </i>
   </energy>
  </scstep>
  <scstep>
   <time name="total">    0.42    0.42</time>
   <energy>
    <i name="e_fr_energy">   -594.07828617 </i>
    <i name="e_wo_entrp">   -594.07827336 </i>
    <i name="e_0_energy">   -594.07827976 </i>
   </energy>
  </scstep>
  <scstep>
   <time name="total">    0.55    0.56</time>
   <energy>
    <i name="e_fr_energy">   -600.65439725 </i>
    <i name="e_wo_entrp">   -600.65438552 </i>
    <i name="e_0_energy">   -600.65439139 </i>
   </energy>
  </scstep>
  <scstep>
   <time name="total">    0.63    0.63</time>
   <energy>
    <i name="e_fr_energy">   -603.34380398 </i>
    <i name="e_wo_entrp">   -603.34383901 </i>
    <i name="e_0_energy">   -603.34382150 </i>
   </energy>
  </scstep>
  <scstep>
   <time name="total">    0.60    0.60</time>
   <energy>
    <i name="e_fr_energy">   -599.78686534 </i>
    <i name="e_wo_entrp">   -599.78686976 </i>
    <i name="e_0_energy">   -599.78686755 </i>
   </energy>
  </scstep>
  <scstep>
   <time name="total">    0.58    0.58</time>
   <energy>
    <i name="e_fr_energy">   -599.30200673 </i>
    <i name="e_wo_entrp">   -599.30201103 </i>
    <i name="e_0_energy">   -599.30200888 </i>
   </energy>
  </scstep>
  <scstep>
   <time name="total">    0.59    0.59</time>
   <energy>
    <i name="e_fr_energy">   -599.23914256 </i>
    <i name="e_wo_entrp">   -599.23916317 </i>
    <i name="e_0_energy">   -599.23915286 </i>
   </energy>
  </scstep>
  <scstep>
   <time name="total">    0.50    0.50</time>
   <energy>
    <i name="e_fr_energy">   -594.07829364 </i>
    <i name="e_wo_entrp">   -594.07824428 </i>
    <i name="e_0_energy">   -594.07826896 </i>
   </energy>
  </scstep>
  <scstep>
   <time name="total">    0.57    0.57</time>
   <energy>
    <i name="e_fr_energy">   -600.71378752 </i>
    <i name="e_wo_entrp">   -600.71373692 </i>
    <i name="e_0_energy">   -600.71376222 </i>
   </energy>
  </scstep>
  <scstep>
   <time name="total">    0.58    0.58</time>
   <energy>
    <i name="e_fr_energy">   -603.50932382 </i>
    <i name="e_wo_entrp">   -603.50945250 </i>
    <i name="e_0_energy">   -603.50938816 </i>
   </energy>
  </scstep>
  <scstep>
   <time name="total">    0.58    0.58</time>
   <energy>
    <i name="e_fr_energy">   -599.79587862 </i>
    <i name="e_wo_entrp">   -599.79587016 </i>
    <i name="e_0_energy">   -599.79587439 </i>
   </energy>
  </scstep>
  <scstep>
   <time name="total">    0.58    0.58</time>
   <energy>
    <i name="e_fr_energy">   -599.29229248 </i>
    <i name="e_wo_entrp">   -599.29229388 </i>
    <i name="e_0_energy">   -599.29229318 </i>
   </energy>
  </scstep>
  <scstep>
   <time name="total">    0.64    0.64</time>
   <energy>
    <i name="e_fr_energy">   -599.15422703 </i>
    <i name="e_wo_entrp">   -599.15423095 </i>
    <i name="e_0_energy">   -599.15422899 </i>
   </energy>
  </scstep>
  <scstep>
   <time name="total">    0.42    0.42</time>
   <energy>
    <i name="e_fr_energy">   -594.76028091 </i>
    <i name="e_wo_entrp">   -594.76022794 </i>
    <i name="e_0_energy">   -594.76025443 </i>
   </energy>
  </scstep>
  <scstep>
   <time name="total">    0.56    0.56</time>
   <energy>
    <i name="e_fr_energy">   -599.72165703 </i>
    <i name="e_wo_entrp">   -599.72173596 </i>
    <i name="e_0_energy">   -599.72169649 </i>
   </energy>
  </scstep>
  <scstep>
   <time name="total">    0.58    0.58</time>
   <energy>
    <i name="e_fr_energy">   -599.26282038 </i>
    <i name="e_wo_entrp">   -599.26264581 </i>
    <i name="e_0_energy">   -599.26273310 </i>
   </energy>
  </scstep>
  <scstep>
   <time name="total">    0.58    0.58</time>
   <energy>
    <i name="e_fr_energy">   -599.04901794 </i>
    <i name="e_wo_entrp">   -599.04914033 </i>
    <i name="e_0_energy">   -599.04907914 </i>
   </energy>
  </scstep>
  <scstep>
   <time name="total">    0.50    0.50</time>
   <energy>
    <i name="e_fr_energy">   -136.71332569 </i>
    <i name="e_wo_entrp">   -136.71362074 </i>
    <i name="e_0_energy">   -136.71347322 </i>
   </energy>
  </scstep>
  <scstep>
   <time name="total">    0.59    0.59</time>
   <energy>
    <i name="e_fr_energy">   -134.64074469 </i>
    <i name="e_wo_entrp">   -134.64104153 </i>
    <i name="e_0_energy">   -134.64089311 </i>
   </energy>
  </scstep>
  <scstep>
   <time name="total">    0.58    0.58</time>
   <energy>
    <i name="e_fr_energy">   -135.85221054 </i>
    <i name="e_wo_entrp">   -135.85381736 </i>
    <i name="e_0_energy">   -135.85301395 </i>
   </energy>
  </scstep>
  <scstep>
   <time name="total">    0.58    0.58</time>
   <energy>
    <i name="e_fr_energy">   -135.35142652 </i>
    <i name="e_wo_entrp">   -135.35326030 </i>
    <i name="e_0_energy">   -135.35234341 </i>
   </energy>
  </scstep>
  <scstep>
   <time name="total">    0.59    0.60</time>
   <energy>
    <i name="e_fr_energy">   -135.34702849 </i>
    <i name="e_wo_entrp">   -135.34945831 </i>
    <i name="e_0_energy">   -135.34824340 </i>
   </energy>
  </scstep>
  <scstep>
   <time name="total">    0.55    0.55</time>
   <energy>
    <i name="e_fr_energy">   -136.72016302 </i>
    <i name="e_wo_entrp">   -136.72047259 </i>
    <i name="e_0_energy">   -136.72031781 </i>
   </energy>
  </scstep>
  <scstep>
   <time name="total">    0.57    0.57</time>
   <energy>
    <i name="e_fr_energy">   -134.64715276 </i>
    <i name="e_wo_entrp">   -134.64746505 </i>
    <i name="e_0_energy">   -134.64730891 </i>
   </energy>
  </scstep>
  <scstep>
   <time name="total">    0.58    0.58</time>
   <energy>
    <i name="e_fr_energy">   -135.85376798 </i>
    <i name="e_wo_entrp">   -135.85534852 </i>
    <i name="e_0_energy">   -135.85455825 </i>
   </energy>
  </scstep>
  <scstep>
   <time name="total">    0.58    0.58</time>
   <energy>
    <i name="e_fr_energy">   -135.35407400 </i>
    <i name="e_wo_entrp">   -135.35591924 </i>
    <i name="e_0_energy">   -135.35499662 </i>
   </energy>
  </scstep>
  <scstep>
   <time name="total">    0.58    0.58</time>
   <energy>
    <i name="e_fr_energy">   -135.35066740 </i>
    <i name="e_wo_entrp">   -135.35310319 </i>
    <i name="e_0_energy">   -135.35188530 </i>
   </energy>
  </scstep>
  <scstep>
   <time name="total">    0.48    0.48</time>
   <energy>
    <i name="e_fr_energy">   -135.64853135 </i>
    <i name="e_wo_entrp">   -135.64853137 </i>
    <i name="e_0_energy">   -135.64853136 </i>
   </energy>
  </scstep>
  <scstep>
   <time name="total">    0.59    0.59</time>
   <energy>
    <i name="e_fr_energy">   -131.55548016 </i>
    <i name="e_wo_entrp">   -131.55547978 </i>
    <i name="e_0_energy">   -131.55547997 </i>
   </energy>
  </scstep>
  <scstep>
   <time name="total">    0.58    0.58</time>
   <energy>
    <i name="e_fr_energy">   -132.53386224 </i>
    <i name="e_wo_entrp">   -132.53386549 </i>
    <i name="e_0_energy">   -132.53386386 </i>
   </energy>
  </scstep>
  <scstep>
   <time name="total">    0.63    0.63</time>
   <energy>
    <i name="e_fr_energy">   -132.69483813 </i>
    <i name="e_wo_entrp">   -132.69487225 </i>
    <i name="e_0_energy">   -132.69485519 </i>
   </energy>
  </scstep>
  <scstep>
   <time name="total">    0.49    0.49</time>
   <energy>
    <i name="e_fr_energy">   -136.74221268 </i>
    <i name="e_wo_entrp">   -136.74192920 </i>
    <i name="e_0_energy">   -136.74207094 </i>
   </energy>
  </scstep>
  <scstep>
   <time name="total">    0.57    0.57</time>
   <energy>
    <i name="e_fr_energy">   -134.67596451 </i>
    <i name="e_wo_entrp">   -134.67577373 </i>
    <i name="e_0_energy">   -134.67586912 </i>
   </energy>
  </scstep>
  <scstep>
   <time name="total">    0.58    0.58</time>
   <energy>
    <i name="e_fr_energy">   -135.85853552 </i>
    <i name="e_wo_entrp">   -135.85673193 </i>
    <i name="e_0_energy">   -135.85763372 </i>
   </energy>
  </scstep>
  <scstep>
   <time name="total">    0.58    0.58</time>
   <energy>
    <i name="e_fr_energy">   -135.39567565 </i>
    <i name="e_wo_entrp">   -135.39377640 </i>
    <i name="e_0_energy">   -135.39472602 </i>
   </energy>
  </scstep>
  <scstep>
   <time name="total">    0.58    0.58</time>
   <energy>
    <i name="e_fr_energy">   -135.40453642 </i>
    <i name="e_wo_entrp">   -135.40217166 </i>
    <i name="e_0_energy">   -135.40335404 </i>
   </energy>
  </scstep>
  <scstep>
   <time name="total">    0.49    0.49</time>
   <energy>
    <i name="e_fr_energy">   -136.74368078 </i>
    <i name="e_wo_entrp">   -136.74341282 </i>
    <i name="e_0_energy">   -136.74354680 </i>
   </energy>
  </scstep>
  <scstep>
   <time name="total">    0.58    0.58</time>
   <energy>
    <i name="e_fr_energy">   -134.67859025 </i>
    <i name="e_wo_entrp">   -134.67841588 </i>
    <i name="e_0_energy">   -134.67850307 </i>
   </energy>
  </scstep>
  <scstep>
   <time name="total">    0.58    0.58</time>
   <energy>
    <i name="e_fr_energy">   -135.85273997 </i>
    <i name="e_wo_entrp">   -135.85090851 </i>
    <i name="e_0_energy">   -135.85182424 </i>
   </energy>
  </scstep>
  <scstep>
   <time name="total">    0.62    0.62</time>
   <energy>
    <i name="e_fr_energy">   -135.39307271 </i>
    <i name="e_wo_entrp">   -135.39118519 </i>
    <i name="e_0_energy">   -135.39212895 </i>
   </energy>
  </scstep>
  <scstep>
   <time name="total">    0.59    0.59</time>
   <energy>
    <i name="e_fr_energy">   -135.40288837 </i>
    <i name="e_wo_entrp">   -135.40052179 </i>
    <i name="e_0_energy">   -135.40170508 </i>
   </energy>
  </scstep>
  <scstep>
   <time name="total">    0.49    0.49</time>
   <energy>
    <i name="e_fr_energy">   -135.66791692 </i>
    <i name="e_wo_entrp">   -135.66791692 </i>
    <i name="e_0_energy">   -135.66791692 </i>
   </energy>
  </scstep>
  <scstep>
   <time name="total">    0.57    0.57</time>
   <energy>
    <i name="e_fr_energy">   -131.57483507 </i>
    <i name="e_wo_entrp">   -131.57483468 </i>
    <i name="e_0_energy">   -131.57483488 </i>
   </energy>
  </scstep>
  <scstep>
   <time name="total">    0.58    0.58</time>
   <energy>
    <i name="e_fr_energy">   -132.55290046 </i>
    <i name="e_wo_entrp">   -132.55289315 </i>
    <i name="e_0_energy">   -132.55289680 </i>
   </energy>
  </scstep>
  <scstep>
   <time name="total">    0.65    0.65</time>
   <energy>
    <i name="e_fr_energy">   -132.71531616 </i>
    <i name="e_wo_entrp">   -132.71528140 </i>
    <i name="e_0_energy">   -132.71529878 </i>
   </energy>
  </scstep>
  <scstep>
   <time name="total">    0.48    0.48</time>
   <energy>
    <i name="e_fr_energy">   -136.76484679 </i>
    <i name="e_wo_entrp">   -136.76466380 </i>
    <i name="e_0_energy">   -136.76475529 </i>
   </energy>
  </scstep>
  <scstep>
   <time name="total">    0.57    0.57</time>
   <energy>
    <i name="e_fr_energy">   -134.68077086 </i>
    <i name="e_wo_entrp">   -134.68058992 </i>
    <i name="e_0_energy">   -134.68068039 </i>
   </energy>
  </scstep>
  <scstep>
   <time name="total">    0.63    0.63</time>
   <energy>
    <i name="e_fr_energy">   -135.88315058 </i>
    <i name="e_wo_entrp">   -135.88138746 </i>
    <i name="e_0_energy">   -135.88226902 </i>
   </energy>
  </scstep>
  <scstep>
   <time name="total">    0.59    0.59</time>
   <energy>
    <i name="e_fr_energy">   -135.39773780 </i>
    <i name="e_wo_entrp">   -135.39586013 </i>
    <i name="e_0_energy">   -135.39679897 </i>
   </energy>
  </scstep>
  <scstep>
   <time name="total">    0.58    0.58</time>
   <energy>
    <i name="e_fr_energy">   -135.40466685 </i>
    <i name="e_wo_entrp">   -135.40231075 </i>
    <i name="e_0_energy">   -135.40348880 </i>
   </energy>
  </scstep>
  <scstep>
   <time name="total">    0.48    0.48</time>
   <energy>
    <i name="e_fr_energy">   -136.76471787 </i>
    <i name="e_wo_entrp">   -136.76492611 </i>
    <i name="e_0_energy">   -136.76482199 </i>
   </energy>
  </scstep>
  <scstep>
   <time name="total">    0.61    0.61</time>
   <energy>
    <i name="e_fr_energy">   -134.67738608 </i>
    <i name="e_wo_entrp">   -134.67768924 </i>
    <i name="e_0_energy">   -134.67753766 </i>
   </energy>
  </scstep>
  <scstep>
   <time name="total">    0.58    0.59</time>
   <energy>
    <i name="e_fr_energy">   -135.91908131 </i>
    <i name="e_wo_entrp">   -135.92064108 </i>
    <i name="e_0_energy">   -135.91986119 </i>
   </energy>
  </scstep>
  <scstep>
   <time name="total">    0.58    0.58</time>
   <energy>
    <i name="e_fr_energy">   -135.38944764 </i>
    <i name="e_wo_entrp">   -135.39127291 </i>
    <i name="e_0_energy">   -135.39036028 </i>
   </energy>
  </scstep>
  <scstep>
   <time name="total">    0.58    0.58</time>
   <energy>
    <i name="e_fr_energy">   -135.38510273 </i>
    <i name="e_wo_entrp">   -135.38752514 </i>
    <i name="e_0_energy">   -135.38631393 </i>
   </energy>
  </scstep>
  <scstep>
   <time name="total">    0.49    0.49</time>
   <energy>
    <i name="e_fr_energy">   -135.65785609 </i>
    <i name="e_wo_entrp">   -135.65785611 </i>
    <i name="e_0_energy">   -135.65785610 </i>
   </energy>
  </scstep>
  <scstep>
   <time name="total">    0.57    0.57</time>
   <energy>
    <i name="e_fr_energy">   -131.60576638 </i>
    <i name="e_wo_entrp">   -131.60576566 </i>
    <i name="e_0_energy">   -131.60576602 </i>
   </energy>
  </scstep>
  <scstep>
   <time name="total">    0.59    0.59</time>
   <energy>
    <i name="e_fr_energy">   -132.58635492 </i>
    <i name="e_wo_entrp">   -132.58635494 </i>
    <i name="e_0_energy">   -132.58635493 </i>
   </energy>
  </scstep>
  <scstep>
   <time name="total">    0.63    0.63</time>
   <energy>
    <i name="e_fr_energy">   -132.76844120 </i>
    <i name="e_wo_entrp">   -132.76846299 </i>
    <i name="e_0_energy">   -132.76845209 </i>
   </energy>
  </scstep>
  <scstep>
   <time name="total">    0.48    0.48</time>
   <energy>
    <i name="e_fr_energy">   -136.76664905 </i>
    <i name="e_wo_entrp">   -136.76684303 </i>
    <i name="e_0_energy">   -136.76674604 </i>
   </energy>
  </scstep>
  <scstep>
   <time name="total">    0.57    0.61</time>
   <energy>
    <i name="e_fr_energy">   -134.67969914 </i>
    <i name="e_wo_entrp">   -134.67998528 </i>
    <i name="e_0_energy">   -134.67984221 </i>
   </energy>
  </scstep>
  <scstep>
   <time name="total">    0.58    0.58</time>
   <energy>
    <i name="e_fr_energy">   -135.92209220 </i>
    <i name="e_wo_entrp">   -135.92369803 </i>
    <i name="e_0_energy">   -135.92289511 </i>
   </energy>
  </scstep>
  <scstep>
   <time name="total">    0.63    0.64</time>
   <energy>
    <i name="e_fr_energy">   -135.38931712 </i>
    <i name="e_wo_entrp">   -135.39113277 </i>
    <i name="e_0_energy">   -135.39022495 </i>
   </energy>
  </scstep>
  <scstep>
   <time name="total">    0.59    0.59</time>
   <energy>
    <i name="e_fr_energy">   -135.38503839 </i>
    <i name="e_wo_entrp">   -135.38746982 </i>
    <i name="e_0_energy">   -135.38625410 </i>
   </energy>
  </scstep>
  <scstep>
   <time name="total">    0.48    0.48</time>
   <energy>
    <i name="e_fr_energy">   -136.76003976 </i>
    <i name="e_wo_entrp">   -136.75987214 </i>
    <i name="e_0_energy">   -136.75995595 </i>
   </energy>
  </scstep>
  <scstep>
   <time name="total">    0.57    0.57</time>
   <energy>
    <i name="e_fr_energy">   -134.67376976 </i>
    <i name="e_wo_entrp">   -134.67360326 </i>
    <i name="e_0_energy">   -134.67368651 </i>
   </energy>
  </scstep>
  <scstep>
   <time name="total">    0.65    0.65</time>
   <energy>
    <i name="e_fr_energy">   -135.88371789 </i>
    <i name="e_wo_entrp">   -135.88191438 </i>
    <i name="e_0_energy">   -135.88281614 </i>
   </energy>
  </scstep>
  <scstep>
   <time name="total">    0.58    0.58</time>
   <energy>
    <i name="e_fr_energy">   -135.39658254 </i>
    <i name="e_wo_entrp">   -135.39471382 </i>
    <i name="e_0_energy">   -135.39564818 </i>
   </energy>
  </scstep>
  <scstep>
   <time name="total">    0.59    0.59</time>
   <energy>
    <i name="e_fr_energy">   -135.40462134 </i>
    <i name="e_wo_entrp">   -135.40226565 </i>
    <i name="e_0_energy">   -135.40344349 </i>
   </energy>
  </scstep>
  <scstep>
   <time name="total">    0.51    0.51</time>
   <energy>
    <i name="e_fr_energy">   -135.65039276 </i>
    <i name="e_wo_entrp">   -135.65039276 </i>
    <i name="e_0_energy">   -135.65039276 </i>
   </energy>
  </scstep>
  <scstep>
   <time name="total">    0.59    0.59</time>
   <energy>
    <i name="e_fr_energy">   -131.60168275 </i>
    <i name="e_wo_entrp">   -131.60168202 </i>
    <i name="e_0_energy">   -131.60168239 </i>
   </energy>
  </scstep>
  <scstep>
   <time name="total">    0.58    0.58</time>
   <energy>
    <i name="e_fr_energy">   -132.57831102 </i>
    <i name="e_wo_entrp">   -132.57830681 </i>
    <i name="e_0_energy">   -132.57830891 </i>
   </energy>
  </scstep>
  <scstep>
   <time name="total">    0.58    0.58</time>
   <energy>
    <i name="e_fr_energy">   -132.76152379 </i>
    <i name="e_wo_entrp">   -132.76150458 </i>
    <i name="e_0_energy">   -132.76151419 </i>
   </energy>
  </scstep>
  <dynmat>
   <varray name="hessian" >
    <v>      -0.04244883       0.00000075      -0.00003681      -0.00525921       0.00003686       0.00003669       0.01024022       0.01053688      -0.01161201       0.01022770       0.01044275       0.01169050       0.01166376      -0.01045755      -0.01155436       0.01165263      -0.01037993       0.01146804 </v>
    <v>       0.00000075      -0.04259274      -0.00000302      -0.00004527      -0.00519010       0.00000930       0.01039537       0.01077200      -0.01168014       0.01030467       0.01073642       0.01157971      -0.01024018       0.01121329       0.01144756      -0.01026065       0.01115170      -0.01151766 </v>
    <v>      -0.00003681      -0.00000302      -0.06446937      -0.00003735      -0.00001238       0.01586679      -0.01165787      -0.01166542       0.01120694       0.01168569       0.01163201       0.01115564      -0.01161568       0.01169592       0.01112025       0.01166429      -0.01162965       0.01106141 </v>
    <v>      -0.00525921      -0.00004527      -0.00003735      -0.04245720       0.00004694       0.00003610       0.01023394       0.01051309       0.01157135       0.01021994       0.01041851      -0.01148282       0.01167284      -0.01042813       0.01163387       0.01166017      -0.01035120      -0.01171408 </v>
    <v>       0.00003686      -0.00519010      -0.00001238       0.00004694      -0.04258762       0.00000192       0.01041731       0.01103135       0.01154372       0.01032698       0.01099385      -0.01161150      -0.01032852       0.01090409      -0.01176111      -0.01034914       0.01084384       0.01166431 </v>
    <v>       0.00003669       0.00000930       0.01586679       0.00003610       0.00000192      -0.06447081       0.01165741       0.01166625       0.01120259      -0.01168567      -0.01163105       0.01116831       0.01161549      -0.01169356       0.01111999      -0.01166238       0.01162975       0.01105173 </v>
    <v>       0.01024022       0.01039537      -0.01165787       0.01023394       0.01041731       0.01165741      -0.02273197      -0.02071055      -0.00133179       0.00219513       0.00380089       0.00090717       0.00008861       0.00076001      -0.00128790       0.00022455      -0.00060975       0.00092339 </v>
    <v>       0.01053688       0.01077200      -0.01166542       0.01051309       0.01103135       0.01166625      -0.02071055      -0.02287073      -0.00075298       0.00379719       0.00220981       0.00119873      -0.00063979       0.00027010       0.00092636       0.00078508       0.00007422      -0.00128825 </v>
    <v>      -0.01161201      -0.01168014       0.01120694       0.01157135       0.01154372       0.01120259      -0.00133179      -0.00075298      -0.02294765      -0.00120147      -0.00091740      -0.00282000       0.00129743       0.00093847       0.00247809       0.00128039       0.00093444       0.00240966 </v>
    <v>       0.01022770       0.01030467       0.01168569       0.01021994       0.01032698      -0.01168567       0.00219513       0.00379719      -0.00120147      -0.02261501      -0.01963120       0.00076110       0.00017774      -0.00083092      -0.00127485       0.00007511       0.00074640       0.00092637 </v>
    <v>       0.01044275       0.01073642       0.01163201       0.01041851       0.01099385      -0.01163105       0.00380089       0.00220981      -0.00091740      -0.01963120      -0.02252309       0.00133550       0.00073451       0.00009791       0.00092337      -0.00081083       0.00014022      -0.00127312 </v>
    <v>       0.01169050       0.01157971       0.01115564      -0.01148282      -0.01161150       0.01116831       0.00090717       0.00119873      -0.00282000       0.00076110       0.00133550      -0.02256102      -0.00093392      -0.00129617       0.00242866      -0.00093780      -0.00128147       0.00235843 </v>
    <v>       0.01166376      -0.01024018      -0.01161568       0.01167284      -0.01032852       0.01161549       0.00008861      -0.00063979       0.00129743       0.00017774       0.00073451      -0.00093392      -0.02229089       0.01992784       0.00132878       0.00202500      -0.00368405      -0.00090086 </v>
    <v>      -0.01045755       0.01121329       0.01169592      -0.01042813       0.01090409      -0.01169356       0.00076001       0.00027010       0.00093847      -0.00083092       0.00009791      -0.00129617       0.01992784      -0.02254130      -0.00074280      -0.00389335       0.00201220       0.00118916 </v>
    <v>      -0.01155436       0.01144756       0.01112025       0.01163387      -0.01176111       0.01111999      -0.00128790       0.00092636       0.00247809      -0.00127485       0.00092337       0.00242866       0.00132878      -0.00074280      -0.02217570       0.00118773      -0.00090643      -0.00298465 </v>
    <v>       0.01165263      -0.01026065       0.01166429       0.01166017      -0.01034914      -0.01166238       0.00022455       0.00078508       0.00128039       0.00007511      -0.00081083      -0.00093780       0.00202500      -0.00389335       0.00118773      -0.02220754       0.01969172      -0.00074421 </v>
    <v>      -0.01037993       0.01115170      -0.01162965      -0.01035120       0.01084384       0.01162975      -0.00060975       0.00007422       0.00093444       0.00074640       0.00014022      -0.00128147      -0.00368405       0.00201220      -0.00090643       0.01969172      -0.02196739       0.00133024 </v>
    <v>       0.01146804      -0.01151766       0.01106141      -0.01171408       0.01166431       0.01105173       0.00092339      -0.00128825       0.00240966       0.00092637      -0.00127312       0.00235843      -0.00090086       0.00118916      -0.00298465      -0.00074421       0.00133024      -0.02160100 </v>
   </varray>
   <v name="eigenvalues"> -1.14186359E-01 -8.58657028E-02 -8.47053095E-02 -6.90131262E-02 -6.26006061E-02 -6.22124451E-02 -4.67663729E-02 -3.00814222E-02 -1.61152082E-02 -5.45489950E-03 -4.73649484E-03 -2.11642613E-03  2.00162252E-05  4.55138012E-04  5.68910683E-04  1.39550435E-03  6.24226187E-03  7.11266871E-03</v>
   <varray name="eigenvectors" >
    <v>   2.41445980E-03  9.63266815E-04 -5.72179670E-01  2.45142073E-03  1.08992087E-03  5.72175002E-01 -2.11661908E-01 -2.12278963E-01 -3.01623257E-05  2.07132098E-01  2.06227094E-01  1.86066056E-04 -2.06268399E-01  2.08450072E-01 -2.17179852E-05  2.05728891E-01 -2.03944310E-01 -1.30525108E-04</v>
    <v>  -4.18624520E-01  3.57276516E-01 -1.26112838E-04 -3.92932558E-01  3.26586819E-01  5.52518202E-03  2.12566026E-02  2.30418294E-02 -2.05488349E-03  2.36872313E-02  2.53580514E-02 -5.39517768E-03  3.32610807E-01 -3.27349958E-01 -2.87870119E-02  3.30732434E-01 -3.24112323E-01  2.74212034E-02</v>
    <v>   3.25585449E-01  3.88915241E-01  8.35071853E-03  3.56360880E-01  4.22050398E-01 -2.14976113E-03 -3.28836814E-01 -3.36525063E-01 -3.24464207E-02 -3.21991079E-01 -3.28808401E-01  3.02482985E-02  1.97864789E-02 -3.34552362E-02 -4.06027892E-03  1.28589998E-02 -2.63833346E-02 -3.56151012E-03</v>
    <v>  -7.92457519E-03 -6.14902423E-03  5.93270797E-01  8.33081025E-03 -7.36031395E-03  5.93324807E-01 -1.01599927E-03  3.18906363E-03 -2.80686095E-01 -1.12772460E-03  3.02505849E-03 -2.70718042E-01  8.52154919E-04  3.26627144E-03 -2.74006080E-01  8.93696777E-04  3.09389653E-03 -2.61869402E-01</v>
    <v>   3.23643749E-01  4.99018204E-01  4.75316397E-03 -2.56895870E-01 -4.55988501E-01  4.61803936E-03 -1.15646783E-02 -4.85408817E-03  4.18875268E-01 -1.28264064E-02 -2.07970822E-03 -4.18514679E-01 -1.86281735E-02 -1.78871341E-02 -1.03708854E-01 -1.96067222E-02 -1.75049376E-02  9.60215126E-02</v>
    <v>   4.58575894E-01 -2.64655431E-01  9.24947215E-03 -4.99395934E-01  3.22204255E-01  9.27017375E-03  1.55599234E-02 -1.78407758E-02  9.62851030E-02  1.56352673E-02 -1.70371963E-02 -1.07044852E-01  2.75356996E-03 -1.00733141E-02  4.13350523E-01  4.34284860E-03 -7.56045156E-03 -4.16430066E-01</v>
    <v>  -3.93939237E-03 -8.54906343E-03  7.89873179E-03 -3.26233946E-03 -8.23478462E-03 -7.78047637E-03 -3.55464236E-01 -3.55505103E-01 -6.28003713E-05  3.56654490E-01  3.57051304E-01  1.36818029E-04  3.49941025E-01 -3.50636491E-01 -4.16370472E-05 -3.51649210E-01  3.51029047E-01  3.42883410E-05</v>
    <v>  -8.11507175E-03 -4.44350537E-03  8.41339674E-03 -1.05409834E-02  3.53099998E-03  6.44194033E-03  4.35413024E-03 -1.18992693E-02  5.00960482E-01  5.56548052E-03 -1.10676455E-02  5.00456692E-01  5.38087890E-03  1.25183478E-02 -4.99494511E-01  6.51008419E-03  1.12457488E-02 -4.98093300E-01</v>
    <v>   7.36366844E-03  2.06323862E-03 -4.15038104E-01  9.31664912E-03  5.18428096E-03  4.15512411E-01  2.82768749E-01  2.87198763E-01  2.53495691E-03 -2.77984432E-01 -2.78046039E-01  4.83695613E-04  2.83991300E-01 -2.99441836E-01 -1.26020171E-03 -2.98748002E-01  2.79854122E-01 -9.97200926E-04</v>
    <v>  -1.19521195E-02  4.65447456E-02  4.72873245E-02  2.20692445E-01  1.77262849E-01  3.38166186E-02  2.61520944E-01 -1.01745141E-02  1.66712078E-01  2.99291954E-01 -2.22234455E-02 -7.54883530E-02 -4.25462059E-01 -4.18301918E-01  7.15753249E-02 -4.17559172E-01 -4.31987555E-01 -6.30254623E-03</v>
    <v>  -1.00609278E-01  1.42486038E-01  1.88155231E-02  4.60915014E-03 -7.35700784E-02  2.39267829E-02  3.82253537E-01 -3.87801465E-01 -2.51590091E-02  5.05213723E-01 -5.20440298E-01  4.59457514E-02  1.47147593E-01  2.33839985E-01  1.40218937E-01  7.55925388E-02  1.73775540E-01 -7.71840225E-02</v>
    <v>   2.92499969E-02 -2.99852030E-02 -7.99031542E-03 -1.69370359E-02  3.70873730E-03 -1.10967487E-02 -4.27725746E-01  4.16603297E-01 -1.37633491E-02  2.97084934E-01 -3.04161108E-01 -3.53321364E-03  3.30520578E-01  3.10920145E-01 -4.09720869E-02 -3.43123372E-01 -3.66880657E-01  1.85953459E-02</v>
    <v>   1.77058328E-03  1.25500614E-01  3.63379189E-01  1.41507498E-02  1.21826115E-01  3.63263201E-01  3.48561526E-03  1.39770548E-01  3.96791440E-01  1.06566762E-02  1.35184134E-01  3.89529465E-01  2.04365552E-02  1.47402114E-01  4.06286273E-01 -3.84074203E-03  1.25637857E-01  3.93794250E-01</v>
    <v>   2.11867669E-01  2.74484099E-01 -9.90065773E-02  3.08494639E-01  3.76195754E-01 -1.03056114E-01  2.99404586E-01  3.48298157E-01 -2.84224951E-02  2.71376067E-01  3.92840489E-01 -1.88266985E-01  1.61453680E-01  2.28231851E-01 -1.15350885E-01  1.08559735E-01  1.77160728E-01 -1.13339554E-01</v>
    <v>   2.31925008E-02 -5.94668864E-02  9.21799806E-03  1.21728655E-02 -3.50230439E-02  9.40692059E-03  3.53237573E-01 -3.86234321E-01  1.55067268E-02 -3.21906652E-01  2.87594141E-01  4.46458834E-03  3.95291317E-01  3.21555635E-01 -3.96200023E-03 -3.30808708E-01 -4.05081839E-01  2.51890676E-02</v>
    <v>   4.41705847E-01 -3.47402520E-01  5.86556967E-02  2.54496031E-01 -1.66585711E-01  5.58296765E-02  9.16694542E-02 -1.59644836E-03  6.28745400E-02  1.53982731E-01 -5.98086323E-02  7.05080011E-02  3.44554333E-01 -3.37066868E-01 -8.97498622E-02  4.36318477E-01 -2.52668469E-01  2.14268094E-01</v>
    <v>   3.32080038E-01  3.76183853E-01 -3.78611152E-03 -1.85456340E-01 -2.48120633E-01 -5.87477897E-03  8.89888320E-02  9.05772310E-02 -5.38239784E-01  6.95908866E-02  1.16776143E-01  5.35812456E-01 -8.24753404E-02 -9.63319644E-02  4.28629954E-02 -8.85632673E-02 -1.05359276E-01 -6.27586872E-02</v>
    <v>   2.03900685E-01 -1.47316328E-01 -5.65622934E-03 -3.99051705E-01  3.45769230E-01 -5.15430399E-03  1.08121629E-01 -9.75398459E-02 -6.08345074E-02  9.44771014E-02 -8.42758989E-02  4.01422568E-02 -1.50876025E-01  9.29143779E-02 -5.27465192E-01 -1.32352372E-01  1.14043284E-01  5.24577091E-01</v>
   </varray>
  </dynmat>
  <time name="totalsc">  145.91  146.44</time>
  <eigenvalues>
   <array>
    <dimension dim="1">band</dimension>
    <dimension dim="2">kpoint</dimension>
    <dimension dim="3">spin</dimension>
    <field>eigene</field>
    <field>occ</field>
    <set>
     <set comment="spin 1">
      <set comment="kpoint 1">
       <r>  -15.6484    1.0000 </r>
       <r>  -15.6484    1.0000 </r>
       <r>  -15.5908    1.0000 </r>
       <r>  -15.5595    1.0000 </r>
       <r>  -15.4951    1.0000 </r>
       <r>  -15.4809    1.0000 </r>
       <r>  -15.4808    1.0000 </r>
       <r>  -15.4501    1.0000 </r>
       <r>  -15.4375    1.0000 </r>
       <r>  -15.3751    1.0000 </r>
       <r>  -12.1449    1.0000 </r>
       <r>  -11.3400    1.0000 </r>
       <r>  -11.2226    1.0000 </r>
       <r>  -11.2214    1.0000 </r>
       <r>   -6.1407    1.0000 </r>
       <r>   -5.9152    1.0000 </r>
       <r>   -4.0485    1.0000 </r>
       <r>   -3.1696    1.0000 </r>
       <r>   -3.1690    1.0000 </r>
       <r>   -2.8776    1.0000 </r>
       <r>   -2.8775    1.0000 </r>
       <r>   -2.3933    1.0000 </r>
       <r>   -2.0720    1.0000 </r>
       <r>   -1.9299    0.9993 </r>
       <r>   -1.9298    0.9993 </r>
       <r>   -1.7450    0.0204 </r>
       <r>    0.5852    0.0000 </r>
       <r>    0.9904    0.0000 </r>
       <r>    2.3639    0.0000 </r>
       <r>    2.3642    0.0000 </r>
       <r>    2.9345    0.0000 </r>
       <r>    3.3032    0.0000 </r>
      </set>
      <set comment="kpoint 2">
       <r>  -15.6475    1.0000 </r>
       <r>  -15.6474    1.0000 </r>
       <r>  -15.5888    1.0000 </r>
       <r>  -15.5590    1.0000 </r>
       <r>  -15.4956    1.0000 </r>
       <r>  -15.4819    1.0000 </r>
       <r>  -15.4819    1.0000 </r>
       <r>  -15.4499    1.0000 </r>
       <r>  -15.4376    1.0000 </r>
       <r>  -15.3771    1.0000 </r>
       <r>  -12.1385    1.0000 </r>
       <r>  -11.3495    1.0000 </r>
       <r>  -11.2222    1.0000 </r>
       <r>  -11.2211    1.0000 </r>
       <r>   -6.1384    1.0000 </r>
       <r>   -5.9172    1.0000 </r>
       <r>   -4.0272    1.0000 </r>
       <r>   -3.2114    1.0000 </r>
       <r>   -3.2109    1.0000 </r>
       <r>   -2.8364    1.0000 </r>
       <r>   -2.8363    1.0000 </r>
       <r>   -2.3880    1.0000 </r>
       <r>   -2.0906    1.0000 </r>
       <r>   -1.9250    0.9989 </r>
       <r>   -1.9249    0.9988 </r>
       <r>   -1.7526    0.0334 </r>
       <r>    0.5846    0.0000 </r>
       <r>    1.0043    0.0000 </r>
       <r>    2.3765    0.0000 </r>
       <r>    2.3767    0.0000 </r>
       <r>    2.9359    0.0000 </r>
       <r>    3.2625    0.0000 </r>
      </set>
      <set comment="kpoint 3">
       <r>  -15.6447    1.0000 </r>
       <r>  -15.6446    1.0000 </r>
       <r>  -15.5831    1.0000 </r>
       <r>  -15.5575    1.0000 </r>
       <r>  -15.4971    1.0000 </r>
       <r>  -15.4850    1.0000 </r>
       <r>  -15.4850    1.0000 </r>
       <r>  -15.4496    1.0000 </r>
       <r>  -15.4380    1.0000 </r>
       <r>  -15.3830    1.0000 </r>
       <r>  -12.1194    1.0000 </r>
       <r>  -11.3774    1.0000 </r>
       <r>  -11.2212    1.0000 </r>
       <r>  -11.2200    1.0000 </r>
       <r>   -6.1317    1.0000 </r>
       <r>   -5.9230    1.0000 </r>
       <r>   -3.9642    1.0000 </r>
       <r>   -3.2971    1.0000 </r>
       <r>   -3.2967    1.0000 </r>
       <r>   -2.7529    1.0000 </r>
       <r>   -2.7526    1.0000 </r>
       <r>   -2.3724    1.0000 </r>
       <r>   -2.1452    1.0000 </r>
       <r>   -1.9106    0.9959 </r>
       <r>   -1.9104    0.9957 </r>
       <r>   -1.7746    0.1134 </r>
       <r>    0.5842    0.0000 </r>
       <r>    1.0416    0.0000 </r>
       <r>    2.4142    0.0000 </r>
       <r>    2.4145    0.0000 </r>
       <r>    2.9378    0.0000 </r>
       <r>    3.1365    0.0000 </r>
      </set>
      <set comment="kpoint 4">
       <r>  -15.6402    1.0000 </r>
       <r>  -15.6402    1.0000 </r>
       <r>  -15.5740    1.0000 </r>
       <r>  -15.5550    1.0000 </r>
       <r>  -15.4993    1.0000 </r>
       <r>  -15.4899    1.0000 </r>
       <r>  -15.4899    1.0000 </r>
       <r>  -15.4490    1.0000 </r>
       <r>  -15.4385    1.0000 </r>
       <r>  -15.3925    1.0000 </r>
       <r>  -12.0880    1.0000 </r>
       <r>  -11.4218    1.0000 </r>
       <r>  -11.2196    1.0000 </r>
       <r>  -11.2185    1.0000 </r>
       <r>   -6.1208    1.0000 </r>
       <r>   -5.9327    1.0000 </r>
       <r>   -3.8630    1.0000 </r>
       <r>   -3.3888    1.0000 </r>
       <r>   -3.3885    1.0000 </r>
       <r>   -2.6656    1.0000 </r>
       <r>   -2.6651    1.0000 </r>
       <r>   -2.3467    1.0000 </r>
       <r>   -2.2325    1.0000 </r>
       <r>   -1.8879    0.9773 </r>
       <r>   -1.8876    0.9764 </r>
       <r>   -1.8098    0.4158 </r>
       <r>    0.5884    0.0000 </r>
       <r>    1.0886    0.0000 </r>
       <r>    2.4772    0.0000 </r>
       <r>    2.4774    0.0000 </r>
       <r>    2.9337    0.0000 </r>
       <r>    2.9475    0.0000 </r>
      </set>
      <set comment="kpoint 5">
       <r>  -15.6347    1.0000 </r>
       <r>  -15.6346    1.0000 </r>
       <r>  -15.5622    1.0000 </r>
       <r>  -15.5517    1.0000 </r>
       <r>  -15.5018    1.0000 </r>
       <r>  -15.4960    1.0000 </r>
       <r>  -15.4960    1.0000 </r>
       <r>  -15.4482    1.0000 </r>
       <r>  -15.4393    1.0000 </r>
       <r>  -15.4053    1.0000 </r>
       <r>  -12.0449    1.0000 </r>
       <r>  -11.4801    1.0000 </r>
       <r>  -11.2178    1.0000 </r>
       <r>  -11.2166    1.0000 </r>
       <r>   -6.1061    1.0000 </r>
       <r>   -5.9458    1.0000 </r>
       <r>   -3.7288    1.0000 </r>
       <r>   -3.4728    1.0000 </r>
       <r>   -3.4725    1.0000 </r>
       <r>   -2.5887    1.0000 </r>
       <r>   -2.5881    1.0000 </r>
       <r>   -2.3483    1.0000 </r>
       <r>   -2.3115    1.0000 </r>
       <r>   -1.8593    0.8839 </r>
       <r>   -1.8589    0.8794 </r>
       <r>   -1.8561    0.8634 </r>
       <r>    0.6032    0.0000 </r>
       <r>    1.1233    0.0000 </r>
       <r>    2.5646    0.0000 </r>
       <r>    2.5648    0.0000 </r>
       <r>    2.7565    0.0000 </r>
       <r>    2.9160    0.0000 </r>
      </set>
      <set comment="kpoint 6">
       <r>  -15.6285    1.0000 </r>
       <r>  -15.6285    1.0000 </r>
       <r>  -15.5490    1.0000 </r>
       <r>  -15.5478    1.0000 </r>
       <r>  -15.5036    1.0000 </r>
       <r>  -15.5027    1.0000 </r>
       <r>  -15.5026    1.0000 </r>
       <r>  -15.4473    1.0000 </r>
       <r>  -15.4403    1.0000 </r>
       <r>  -15.4208    1.0000 </r>
       <r>  -11.9913    1.0000 </r>
       <r>  -11.5488    1.0000 </r>
       <r>  -11.2159    1.0000 </r>
       <r>  -11.2148    1.0000 </r>
       <r>   -6.0883    1.0000 </r>
       <r>   -5.9621    1.0000 </r>
       <r>   -3.5686    1.0000 </r>
       <r>   -3.5426    1.0000 </r>
       <r>   -3.5424    1.0000 </r>
       <r>   -2.5278    1.0000 </r>
       <r>   -2.5271    1.0000 </r>
       <r>   -2.4881    1.0000 </r>
       <r>   -2.2678    1.0000 </r>
       <r>   -1.9109    0.9959 </r>
       <r>   -1.8289    0.6316 </r>
       <r>   -1.8284    0.6211 </r>
       <r>    0.6349    0.0000 </r>
       <r>    1.1201    0.0000 </r>
       <r>    2.6213    0.0000 </r>
       <r>    2.6733    0.0000 </r>
       <r>    2.6734    0.0000 </r>
       <r>    2.8788    0.0000 </r>
      </set>
      <set comment="kpoint 7">
       <r>  -15.6228    1.0000 </r>
       <r>  -15.6227    1.0000 </r>
       <r>  -15.5434    1.0000 </r>
       <r>  -15.5379    1.0000 </r>
       <r>  -15.5089    1.0000 </r>
       <r>  -15.5088    1.0000 </r>
       <r>  -15.5018    1.0000 </r>
       <r>  -15.4462    1.0000 </r>
       <r>  -15.4414    1.0000 </r>
       <r>  -15.4384    1.0000 </r>
       <r>  -11.9284    1.0000 </r>
       <r>  -11.6243    1.0000 </r>
       <r>  -11.2144    1.0000 </r>
       <r>  -11.2132    1.0000 </r>
       <r>   -6.0680    1.0000 </r>
       <r>   -5.9810    1.0000 </r>
       <r>   -3.5947    1.0000 </r>
       <r>   -3.5946    1.0000 </r>
       <r>   -3.3900    1.0000 </r>
       <r>   -2.6479    1.0000 </r>
       <r>   -2.4847    1.0000 </r>
       <r>   -2.4839    1.0000 </r>
       <r>   -2.2166    1.0000 </r>
       <r>   -1.9713    1.0000 </r>
       <r>   -1.8019    0.3341 </r>
       <r>   -1.8013    0.3226 </r>
       <r>    0.6883    0.0000 </r>
       <r>    1.0652    0.0000 </r>
       <r>    2.5701    0.0000 </r>
       <r>    2.7943    0.0000 </r>
       <r>    2.7944    0.0000 </r>
       <r>    2.8200    0.0000 </r>
      </set>
      <set comment="kpoint 8">
       <r>  -15.6185    1.0000 </r>
       <r>  -15.6185    1.0000 </r>
       <r>  -15.5389    1.0000 </r>
       <r>  -15.5335    1.0000 </r>
       <r>  -15.5134    1.0000 </r>
       <r>  -15.5134    1.0000 </r>
       <r>  -15.4920    1.0000 </r>
       <r>  -15.4571    1.0000 </r>
       <r>  -15.4450    1.0000 </r>
       <r>  -15.4425    1.0000 </r>
       <r>  -11.8579    1.0000 </r>
       <r>  -11.7031    1.0000 </r>
       <r>  -11.2133    1.0000 </r>
       <r>  -11.2122    1.0000 </r>
       <r>   -6.0463    1.0000 </r>
       <r>   -6.0019    1.0000 </r>
       <r>   -3.6268    1.0000 </r>
       <r>   -3.6267    1.0000 </r>
       <r>   -3.2011    1.0000 </r>
       <r>   -2.8235    1.0000 </r>
       <r>   -2.4592    1.0000 </r>
       <r>   -2.4584    1.0000 </r>
       <r>   -2.1595    1.0000 </r>
       <r>   -2.0346    1.0000 </r>
       <r>   -1.7832    0.1694 </r>
       <r>   -1.7825    0.1609 </r>
       <r>    0.7656    0.0000 </r>
       <r>    0.9709    0.0000 </r>
       <r>    2.5936    0.0000 </r>
       <r>    2.7436    0.0000 </r>
       <r>    2.9052    0.0000 </r>
       <r>    2.9052    0.0000 </r>
      </set>
      <set comment="kpoint 9">
       <r>  -15.6170    1.0000 </r>
       <r>  -15.6169    1.0000 </r>
       <r>  -15.5351    1.0000 </r>
       <r>  -15.5351    1.0000 </r>
       <r>  -15.5151    1.0000 </r>
       <r>  -15.5150    1.0000 </r>
       <r>  -15.4757    1.0000 </r>
       <r>  -15.4757    1.0000 </r>
       <r>  -15.4438    1.0000 </r>
       <r>  -15.4438    1.0000 </r>
       <r>  -11.7825    1.0000 </r>
       <r>  -11.7815    1.0000 </r>
       <r>  -11.2130    1.0000 </r>
       <r>  -11.2118    1.0000 </r>
       <r>   -6.0241    1.0000 </r>
       <r>   -6.0237    1.0000 </r>
       <r>   -3.6377    1.0000 </r>
       <r>   -3.6375    1.0000 </r>
       <r>   -3.0100    1.0000 </r>
       <r>   -3.0099    1.0000 </r>
       <r>   -2.4508    1.0000 </r>
       <r>   -2.4500    1.0000 </r>
       <r>   -2.0987    1.0000 </r>
       <r>   -2.0975    1.0000 </r>
       <r>   -1.7765    0.1262 </r>
       <r>   -1.7759    0.1190 </r>
       <r>    0.8635    0.0000 </r>
       <r>    0.8638    0.0000 </r>
       <r>    2.6611    0.0000 </r>
       <r>    2.6615    0.0000 </r>
       <r>    2.9560    0.0000 </r>
       <r>    2.9560    0.0000 </r>
      </set>
     </set>
    </set>
   </array>
  </eigenvalues>
  <separator name="orbital magnetization" >
   <v name="MAGDIPOLOUT">      0.00000000      0.00000000      0.00000000</v>
  </separator>
  <dos>
   <i name="efermi">     -1.81730326 </i>
   <total>
    <array>
     <dimension dim="1">gridpoints</dimension>
     <dimension dim="2">spin</dimension>
     <field>energy</field>
     <field>total</field>
     <field>integrated</field>
     <set>
      <set comment="spin 1">
       <r>   -16.5960     0.0000     0.0000 </r>
       <r>   -16.5265     0.0000     0.0000 </r>
       <r>   -16.4570     0.0000     0.0000 </r>
       <r>   -16.3875     0.0000     0.0000 </r>
       <r>   -16.3180     0.0000     0.0000 </r>
       <r>   -16.2486     0.0000     0.0000 </r>
       <r>   -16.1791     0.0000     0.0000 </r>
       <r>   -16.1096     0.0000     0.0000 </r>
       <r>   -16.0401     0.0000     0.0000 </r>
       <r>   -15.9706     0.0000     0.0000 </r>
       <r>   -15.9011     0.0000     0.0000 </r>
       <r>   -15.8316     0.0000     0.0000 </r>
       <r>   -15.7621     0.0140     0.0010 </r>
       <r>   -15.6926     3.2048     0.2237 </r>
       <r>   -15.6231    34.6099     2.6287 </r>
       <r>   -15.5537    54.0846     6.3870 </r>
       <r>   -15.4842    85.7408    12.3451 </r>
       <r>   -15.4147    81.7817    18.0281 </r>
       <r>   -15.3452    26.1199    19.8431 </r>
       <r>   -15.2757     2.2392    19.9987 </r>
       <r>   -15.2062     0.0185    20.0000 </r>
       <r>   -15.1367     0.0000    20.0000 </r>
       <r>   -15.0672     0.0000    20.0000 </r>
       <r>   -14.9977     0.0000    20.0000 </r>
       <r>   -14.9283     0.0000    20.0000 </r>
       <r>   -14.8588     0.0000    20.0000 </r>
       <r>   -14.7893     0.0000    20.0000 </r>
       <r>   -14.7198     0.0000    20.0000 </r>
       <r>   -14.6503     0.0000    20.0000 </r>
       <r>   -14.5808     0.0000    20.0000 </r>
       <r>   -14.5113     0.0000    20.0000 </r>
       <r>   -14.4418     0.0000    20.0000 </r>
       <r>   -14.3723     0.0000    20.0000 </r>
       <r>   -14.3028     0.0000    20.0000 </r>
       <r>   -14.2334     0.0000    20.0000 </r>
       <r>   -14.1639     0.0000    20.0000 </r>
       <r>   -14.0944     0.0000    20.0000 </r>
       <r>   -14.0249     0.0000    20.0000 </r>
       <r>   -13.9554     0.0000    20.0000 </r>
       <r>   -13.8859     0.0000    20.0000 </r>
       <r>   -13.8164     0.0000    20.0000 </r>
       <r>   -13.7469     0.0000    20.0000 </r>
       <r>   -13.6774     0.0000    20.0000 </r>
       <r>   -13.6080     0.0000    20.0000 </r>
       <r>   -13.5385     0.0000    20.0000 </r>
       <r>   -13.4690     0.0000    20.0000 </r>
       <r>   -13.3995     0.0000    20.0000 </r>
       <r>   -13.3300     0.0000    20.0000 </r>
       <r>   -13.2605     0.0000    20.0000 </r>
       <r>   -13.1910     0.0000    20.0000 </r>
       <r>   -13.1215     0.0000    20.0000 </r>
       <r>   -13.0520     0.0000    20.0000 </r>
       <r>   -12.9825     0.0000    20.0000 </r>
       <r>   -12.9131     0.0000    20.0000 </r>
       <r>   -12.8436     0.0000    20.0000 </r>
       <r>   -12.7741     0.0000    20.0000 </r>
       <r>   -12.7046     0.0000    20.0000 </r>
       <r>   -12.6351     0.0000    20.0000 </r>
       <r>   -12.5656     0.0000    20.0000 </r>
       <r>   -12.4961     0.0000    20.0000 </r>
       <r>   -12.4266     0.0000    20.0000 </r>
       <r>   -12.3571     0.0000    20.0000 </r>
       <r>   -12.2877     0.0001    20.0000 </r>
       <r>   -12.2182     0.0879    20.0061 </r>
       <r>   -12.1487     3.0229    20.2162 </r>
       <r>   -12.0792     7.9733    20.7702 </r>
       <r>   -12.0097     5.6023    21.1595 </r>
       <r>   -11.9402     4.1913    21.4508 </r>
       <r>   -11.8707     3.6328    21.7032 </r>
       <r>   -11.8012     3.3405    21.9354 </r>
       <r>   -11.7317     3.2065    22.1582 </r>
       <r>   -11.6622     3.1857    22.3796 </r>
       <r>   -11.5928     3.2457    22.6051 </r>
       <r>   -11.5233     3.4358    22.8438 </r>
       <r>   -11.4538     3.9315    23.1170 </r>
       <r>   -11.3843     5.4740    23.4974 </r>
       <r>   -11.3148     6.2460    23.9315 </r>
       <r>   -11.2453    13.3160    24.8568 </r>
       <r>   -11.1758    38.2096    27.5119 </r>
       <r>   -11.1063     6.9716    27.9964 </r>
       <r>   -11.0368     0.0518    28.0000 </r>
       <r>   -10.9674     0.0000    28.0000 </r>
       <r>   -10.8979     0.0000    28.0000 </r>
       <r>   -10.8284     0.0000    28.0000 </r>
       <r>   -10.7589     0.0000    28.0000 </r>
       <r>   -10.6894     0.0000    28.0000 </r>
       <r>   -10.6199     0.0000    28.0000 </r>
       <r>   -10.5504     0.0000    28.0000 </r>
       <r>   -10.4809     0.0000    28.0000 </r>
       <r>   -10.4114     0.0000    28.0000 </r>
       <r>   -10.3420     0.0000    28.0000 </r>
       <r>   -10.2725     0.0000    28.0000 </r>
       <r>   -10.2030     0.0000    28.0000 </r>
       <r>   -10.1335     0.0000    28.0000 </r>
       <r>   -10.0640     0.0000    28.0000 </r>
       <r>    -9.9945     0.0000    28.0000 </r>
       <r>    -9.9250     0.0000    28.0000 </r>
       <r>    -9.8555     0.0000    28.0000 </r>
       <r>    -9.7860     0.0000    28.0000 </r>
       <r>    -9.7165     0.0000    28.0000 </r>
       <r>    -9.6471     0.0000    28.0000 </r>
       <r>    -9.5776     0.0000    28.0000 </r>
       <r>    -9.5081     0.0000    28.0000 </r>
       <r>    -9.4386     0.0000    28.0000 </r>
       <r>    -9.3691     0.0000    28.0000 </r>
       <r>    -9.2996     0.0000    28.0000 </r>
       <r>    -9.2301     0.0000    28.0000 </r>
       <r>    -9.1606     0.0000    28.0000 </r>
       <r>    -9.0911     0.0000    28.0000 </r>
       <r>    -9.0217     0.0000    28.0000 </r>
       <r>    -8.9522     0.0000    28.0000 </r>
       <r>    -8.8827     0.0000    28.0000 </r>
       <r>    -8.8132     0.0000    28.0000 </r>
       <r>    -8.7437     0.0000    28.0000 </r>
       <r>    -8.6742     0.0000    28.0000 </r>
       <r>    -8.6047     0.0000    28.0000 </r>
       <r>    -8.5352     0.0000    28.0000 </r>
       <r>    -8.4657     0.0000    28.0000 </r>
       <r>    -8.3962     0.0000    28.0000 </r>
       <r>    -8.3268     0.0000    28.0000 </r>
       <r>    -8.2573     0.0000    28.0000 </r>
       <r>    -8.1878     0.0000    28.0000 </r>
       <r>    -8.1183     0.0000    28.0000 </r>
       <r>    -8.0488     0.0000    28.0000 </r>
       <r>    -7.9793     0.0000    28.0000 </r>
       <r>    -7.9098     0.0000    28.0000 </r>
       <r>    -7.8403     0.0000    28.0000 </r>
       <r>    -7.7708     0.0000    28.0000 </r>
       <r>    -7.7014     0.0000    28.0000 </r>
       <r>    -7.6319     0.0000    28.0000 </r>
       <r>    -7.5624     0.0000    28.0000 </r>
       <r>    -7.4929     0.0000    28.0000 </r>
       <r>    -7.4234     0.0000    28.0000 </r>
       <r>    -7.3539     0.0000    28.0000 </r>
       <r>    -7.2844     0.0000    28.0000 </r>
       <r>    -7.2149     0.0000    28.0000 </r>
       <r>    -7.1454     0.0000    28.0000 </r>
       <r>    -7.0759     0.0000    28.0000 </r>
       <r>    -7.0065     0.0000    28.0000 </r>
       <r>    -6.9370     0.0000    28.0000 </r>
       <r>    -6.8675     0.0000    28.0000 </r>
       <r>    -6.7980     0.0000    28.0000 </r>
       <r>    -6.7285     0.0000    28.0000 </r>
       <r>    -6.6590     0.0000    28.0000 </r>
       <r>    -6.5895     0.0000    28.0000 </r>
       <r>    -6.5200     0.0000    28.0000 </r>
       <r>    -6.4505     0.0000    28.0000 </r>
       <r>    -6.3811     0.0000    28.0000 </r>
       <r>    -6.3116     0.0000    28.0000 </r>
       <r>    -6.2421     0.0143    28.0010 </r>
       <r>    -6.1726     1.7630    28.1235 </r>
       <r>    -6.1031    12.0820    28.9631 </r>
       <r>    -6.0336    13.3338    29.8896 </r>
       <r>    -5.9641    13.1238    30.8016 </r>
       <r>    -5.8946    14.1367    31.7839 </r>
       <r>    -5.8251     3.0671    31.9971 </r>
       <r>    -5.7556     0.0421    32.0000 </r>
       <r>    -5.6862     0.0000    32.0000 </r>
       <r>    -5.6167     0.0000    32.0000 </r>
       <r>    -5.5472     0.0000    32.0000 </r>
       <r>    -5.4777     0.0000    32.0000 </r>
       <r>    -5.4082     0.0000    32.0000 </r>
       <r>    -5.3387     0.0000    32.0000 </r>
       <r>    -5.2692     0.0000    32.0000 </r>
       <r>    -5.1997     0.0000    32.0000 </r>
       <r>    -5.1302     0.0000    32.0000 </r>
       <r>    -5.0608     0.0000    32.0000 </r>
       <r>    -4.9913     0.0000    32.0000 </r>
       <r>    -4.9218     0.0000    32.0000 </r>
       <r>    -4.8523     0.0000    32.0000 </r>
       <r>    -4.7828     0.0000    32.0000 </r>
       <r>    -4.7133     0.0000    32.0000 </r>
       <r>    -4.6438     0.0000    32.0000 </r>
       <r>    -4.5743     0.0000    32.0000 </r>
       <r>    -4.5048     0.0000    32.0000 </r>
       <r>    -4.4353     0.0000    32.0000 </r>
       <r>    -4.3659     0.0000    32.0000 </r>
       <r>    -4.2964     0.0000    32.0000 </r>
       <r>    -4.2269     0.0000    32.0000 </r>
       <r>    -4.1574     0.0023    32.0002 </r>
       <r>    -4.0879     0.3917    32.0274 </r>
       <r>    -4.0184     3.4253    32.2654 </r>
       <r>    -3.9489     3.9504    32.5399 </r>
       <r>    -3.8794     2.3481    32.7031 </r>
       <r>    -3.8099     2.2726    32.8610 </r>
       <r>    -3.7405     1.5476    32.9685 </r>
       <r>    -3.6710     3.5675    33.2165 </r>
       <r>    -3.6015    11.2417    33.9976 </r>
       <r>    -3.5320    12.9605    34.8983 </r>
       <r>    -3.4625     7.7900    35.4396 </r>
       <r>    -3.3930     7.5282    35.9627 </r>
       <r>    -3.3235     7.2180    36.4643 </r>
       <r>    -3.2540     6.1790    36.8937 </r>
       <r>    -3.1845     8.9436    37.5151 </r>
       <r>    -3.1150     4.9089    37.8563 </r>
       <r>    -3.0456     0.8329    37.9141 </r>
       <r>    -2.9761     2.4360    38.0834 </r>
       <r>    -2.9066     1.5365    38.1902 </r>
       <r>    -2.8371     7.0683    38.6814 </r>
       <r>    -2.7676     8.4333    39.2674 </r>
       <r>    -2.6981     6.2668    39.7029 </r>
       <r>    -2.6286     8.4757    40.2918 </r>
       <r>    -2.5591     8.4460    40.8787 </r>
       <r>    -2.4896    12.8682    41.7730 </r>
       <r>    -2.4202    15.3287    42.8381 </r>
       <r>    -2.3507    11.6658    43.6488 </r>
       <r>    -2.2812     9.4007    44.3020 </r>
       <r>    -2.2117     7.5975    44.8300 </r>
       <r>    -2.1422     7.4473    45.3475 </r>
       <r>    -2.0727     8.7378    45.9547 </r>
       <r>    -2.0032     6.1655    46.3831 </r>
       <r>    -1.9337    11.1425    47.1574 </r>
       <r>    -1.8642    24.2537    48.8428 </r>
       <r>    -1.7947    25.0659    50.5846 </r>
       <r>    -1.7253    17.9718    51.8334 </r>
       <r>    -1.6558     2.3715    51.9982 </r>
       <r>    -1.5863     0.0254    52.0000 </r>
       <r>    -1.5168     0.0000    52.0000 </r>
       <r>    -1.4473     0.0000    52.0000 </r>
       <r>    -1.3778     0.0000    52.0000 </r>
       <r>    -1.3083     0.0000    52.0000 </r>
       <r>    -1.2388     0.0000    52.0000 </r>
       <r>    -1.1693     0.0000    52.0000 </r>
       <r>    -1.0999     0.0000    52.0000 </r>
       <r>    -1.0304     0.0000    52.0000 </r>
       <r>    -0.9609     0.0000    52.0000 </r>
       <r>    -0.8914     0.0000    52.0000 </r>
       <r>    -0.8219     0.0000    52.0000 </r>
       <r>    -0.7524     0.0000    52.0000 </r>
       <r>    -0.6829     0.0000    52.0000 </r>
       <r>    -0.6134     0.0000    52.0000 </r>
       <r>    -0.5439     0.0000    52.0000 </r>
       <r>    -0.4744     0.0000    52.0000 </r>
       <r>    -0.4050     0.0000    52.0000 </r>
       <r>    -0.3355     0.0000    52.0000 </r>
       <r>    -0.2660     0.0000    52.0000 </r>
       <r>    -0.1965     0.0000    52.0000 </r>
       <r>    -0.1270     0.0000    52.0000 </r>
       <r>    -0.0575     0.0000    52.0000 </r>
       <r>     0.0120     0.0000    52.0000 </r>
       <r>     0.0815     0.0000    52.0000 </r>
       <r>     0.1510     0.0000    52.0000 </r>
       <r>     0.2204     0.0000    52.0000 </r>
       <r>     0.2899     0.0000    52.0000 </r>
       <r>     0.3594     0.0000    52.0000 </r>
       <r>     0.4289     0.0001    52.0000 </r>
       <r>     0.4984     0.0920    52.0064 </r>
       <r>     0.5679     4.4635    52.3166 </r>
       <r>     0.6374    12.2964    53.1710 </r>
       <r>     0.7069     5.5416    53.5561 </r>
       <r>     0.7764     3.2197    53.7799 </r>
       <r>     0.8459     2.4335    53.9490 </r>
       <r>     0.9153     2.5362    54.1252 </r>
       <r>     0.9848     4.4224    54.4325 </r>
       <r>     1.0543     8.6601    55.0343 </r>
       <r>     1.1238     9.6833    55.7072 </r>
       <r>     1.1933     4.0529    55.9888 </r>
       <r>     1.2628     0.1608    56.0000 </r>
       <r>     1.3323     0.0002    56.0000 </r>
       <r>     1.4018     0.0000    56.0000 </r>
       <r>     1.4713     0.0000    56.0000 </r>
       <r>     1.5407     0.0000    56.0000 </r>
       <r>     1.6102     0.0000    56.0000 </r>
       <r>     1.6797     0.0000    56.0000 </r>
       <r>     1.7492     0.0000    56.0000 </r>
       <r>     1.8187     0.0000    56.0000 </r>
       <r>     1.8882     0.0000    56.0000 </r>
       <r>     1.9577     0.0000    56.0000 </r>
       <r>     2.0272     0.0000    56.0000 </r>
       <r>     2.0967     0.0000    56.0000 </r>
       <r>     2.1661     0.0000    56.0000 </r>
       <r>     2.2356     0.0007    56.0001 </r>
       <r>     2.3051     0.3340    56.0233 </r>
       <r>     2.3746     6.2756    56.4594 </r>
       <r>     2.4441    10.9463    57.2200 </r>
       <r>     2.5136     7.2900    57.7266 </r>
       <r>     2.5831     9.6390    58.3964 </r>
       <r>     2.6526    11.2347    59.1771 </r>
       <r>     2.7221     9.2047    59.8167 </r>
       <r>     2.7916     9.5000    60.4769 </r>
       <r>     2.8610     9.2099    61.1169 </r>
       <r>     2.9305    17.0809    62.3038 </r>
       <r>     3.0000    14.2943    63.2971 </r>
       <r>     3.0695     1.2208    63.3819 </r>
       <r>     3.1390     1.7994    63.5070 </r>
       <r>     3.2085     1.8572    63.6360 </r>
       <r>     3.2780     2.6751    63.8219 </r>
       <r>     3.3475     2.3435    63.9848 </r>
       <r>     3.4170     0.2179    63.9999 </r>
       <r>     3.4864     0.0012    64.0000 </r>
       <r>     3.5559     0.0000    64.0000 </r>
       <r>     3.6254     0.0000    64.0000 </r>
       <r>     3.6949     0.0000    64.0000 </r>
       <r>     3.7644     0.0000    64.0000 </r>
       <r>     3.8339     0.0000    64.0000 </r>
       <r>     3.9034     0.0000    64.0000 </r>
       <r>     3.9729     0.0000    64.0000 </r>
       <r>     4.0424     0.0000    64.0000 </r>
       <r>     4.1119     0.0000    64.0000 </r>
       <r>     4.1813     0.0000    64.0000 </r>
       <r>     4.2508     0.0000    64.0000 </r>
      </set>
     </set>
    </array>
   </total>
  </dos>
 </calculation>
 <structure name="finalpos" >
  <crystal>
   <varray name="basis" >
    <v>       8.54774287       0.00000000       0.00000000 </v>
    <v>       0.00000000       8.54774287       0.00000000 </v>
    <v>       0.00000000       0.00000000       7.12734328 </v>
   </varray>
   <i name="volume">    520.75155532 </i>
   <varray name="rec_basis" >
    <v>       0.11698995       0.00000000       0.00000000 </v>
    <v>       0.00000000       0.11698995       0.00000000 </v>
    <v>       0.00000000       0.00000000       0.14030473 </v>
   </varray>
  </crystal>
  <varray name="positions" >
   <v>       0.50000000       0.50000000       0.25000000 </v>
   <v>       0.50000000       0.50000000       0.75000000 </v>
   <v>       0.68110312       0.68110311       0.00000000 </v>
   <v>       0.31889689       0.31889689       0.00000000 </v>
   <v>       0.31889689       0.68110311       0.50000000 </v>
   <v>       0.68110312       0.31889689       0.50000000 </v>
  </varray>
 </structure>
</modeling>
