<?xml version="1.0" encoding="ISO-8859-1"?>
<modeling>
 <generator>
  <i name="program" type="string">vasp </i>
  <i name="version" type="string">5.4.4.18Apr17-6-g9f103f2a35  </i>
  <i name="subversion" type="string">(build May 25 2018 14:11:39) complex            parallel </i>
  <i name="platform" type="string">LinuxIFC </i>
  <i name="date" type="string">2018 11 08 </i>
  <i name="time" type="string">16:29:17 </i>
 </generator>
 <incar>
  <i type="string" name="SYSTEM"> InTe</i>
  <i type="string" name="PREC">accurate</i>
  <i type="string" name="ALGO"> Fast</i>
  <i type="logical" name="ADDGRID"> T  </i>
  <i type="int" name="ISPIN">     2</i>
  <i type="int" name="ICHARG">    11</i>
  <i type="int" name="IBRION">    -1</i>
  <i name="EDIFF">      0.00001000</i>
  <i name="ENCUT">    520.00000000</i>
  <i type="logical" name="LREAL"> F  </i>
  <i type="int" name="ISMEAR">     0</i>
  <i name="SIGMA">      0.05000000</i>
  <i type="int" name="NWRITE">     1</i>
  <i type="logical" name="LWAVE"> F  </i>
  <i type="logical" name="LCHARG"> F  </i>
  <v type="int" name="KPOINT_BSE">    -1     0     0     0</v>
 </incar>
 <structure name="primitive_cell" >
  <crystal>
   <varray name="basis" >
    <v>      -4.31121826      -4.31121826       3.61207611 </v>
    <v>       4.31121826       4.31121826       3.61207611 </v>
    <v>      -4.31121826       4.31121826      -3.61207611 </v>
   </varray>
   <i name="volume">    268.54489670 </i>
   <varray name="rec_basis" >
    <v>      -0.11597650       0.00000000       0.13842455 </v>
    <v>      -0.00000000       0.11597650       0.13842455 </v>
    <v>      -0.11597650       0.11597650       0.00000000 </v>
   </varray>
  </crystal>
  <varray name="positions" >
   <v>       0.25000000       0.25000000       0.00000000 </v>
   <v>      -0.25000000      -0.25000000       0.00000000 </v>
   <v>       0.18200018       0.31799982      -0.50000000 </v>
   <v>       0.31799982      -0.18200018       0.13599963 </v>
   <v>      -0.31799982       0.18200018      -0.13599963 </v>
   <v>      -0.18200020      -0.31799982       0.49999999 </v>
   <v>       0.25000000      -0.25000000      -0.50000000 </v>
   <v>      -0.25000000       0.25000000      -0.50000000 </v>
  </varray>
 </structure>
 <varray name="primitive_index" >
  <v type="int" >        1 </v>
  <v type="int" >        2 </v>
  <v type="int" >       10 </v>
  <v type="int" >       12 </v>
  <v type="int" >       13 </v>
  <v type="int" >        9 </v>
  <v type="int" >        5 </v>
  <v type="int" >        7 </v>
 </varray>
 <kpoints>
  <generation param="listgenerated">
   <i name="divisions" type="int">      16 </i>
   <v>       0.00000000       0.00000000       0.00000000 </v>
   <v>       0.00000000       0.50000000       0.00000000 </v>
   <v>       0.50000000       0.50000000       0.00000000 </v>
   <v>       0.00000000       0.00000000       0.00000000 </v>
   <v>       0.00000000       0.00000000       0.50000000 </v>
   <v>       0.00000000       0.50000000       0.50000000 </v>
   <v>       0.50000000       0.50000000       0.50000000 </v>
   <v>       0.00000000       0.50000000       0.00000000 </v>
   <v>       0.50000000       0.50000000       0.00000000 </v>
   <v>       0.50000000       0.50000000       0.50000000 </v>
  </generation>
  <varray name="kpointlist" >
   <v>       0.00000000       0.00000000       0.00000000 </v>
   <v>       0.00000000       0.03333333       0.00000000 </v>
   <v>       0.00000000       0.06666667       0.00000000 </v>
   <v>       0.00000000       0.10000000       0.00000000 </v>
   <v>       0.00000000       0.13333333       0.00000000 </v>
   <v>       0.00000000       0.16666667       0.00000000 </v>
   <v>       0.00000000       0.20000000       0.00000000 </v>
   <v>       0.00000000       0.23333333       0.00000000 </v>
   <v>       0.00000000       0.26666667       0.00000000 </v>
   <v>       0.00000000       0.30000000       0.00000000 </v>
   <v>       0.00000000       0.33333333       0.00000000 </v>
   <v>       0.00000000       0.36666667       0.00000000 </v>
   <v>       0.00000000       0.40000000       0.00000000 </v>
   <v>       0.00000000       0.43333333       0.00000000 </v>
   <v>       0.00000000       0.46666667       0.00000000 </v>
   <v>       0.00000000       0.50000000       0.00000000 </v>
   <v>       0.00000000       0.50000000       0.00000000 </v>
   <v>       0.03333333       0.50000000       0.00000000 </v>
   <v>       0.06666667       0.50000000       0.00000000 </v>
   <v>       0.10000000       0.50000000       0.00000000 </v>
   <v>       0.13333333       0.50000000       0.00000000 </v>
   <v>       0.16666667       0.50000000       0.00000000 </v>
   <v>       0.20000000       0.50000000       0.00000000 </v>
   <v>       0.23333333       0.50000000       0.00000000 </v>
   <v>       0.26666667       0.50000000       0.00000000 </v>
   <v>       0.30000000       0.50000000       0.00000000 </v>
   <v>       0.33333333       0.50000000       0.00000000 </v>
   <v>       0.36666667       0.50000000       0.00000000 </v>
   <v>       0.40000000       0.50000000       0.00000000 </v>
   <v>       0.43333333       0.50000000       0.00000000 </v>
   <v>       0.46666667       0.50000000       0.00000000 </v>
   <v>       0.50000000       0.50000000       0.00000000 </v>
   <v>       0.50000000       0.50000000       0.00000000 </v>
   <v>       0.46666667       0.46666667       0.00000000 </v>
   <v>       0.43333333       0.43333333       0.00000000 </v>
   <v>       0.40000000       0.40000000       0.00000000 </v>
   <v>       0.36666667       0.36666667       0.00000000 </v>
   <v>       0.33333333       0.33333333       0.00000000 </v>
   <v>       0.30000000       0.30000000       0.00000000 </v>
   <v>       0.26666667       0.26666667       0.00000000 </v>
   <v>       0.23333333       0.23333333       0.00000000 </v>
   <v>       0.20000000       0.20000000       0.00000000 </v>
   <v>       0.16666667       0.16666667       0.00000000 </v>
   <v>       0.13333333       0.13333333       0.00000000 </v>
   <v>       0.10000000       0.10000000       0.00000000 </v>
   <v>       0.06666667       0.06666667       0.00000000 </v>
   <v>       0.03333333       0.03333333       0.00000000 </v>
   <v>       0.00000000       0.00000000       0.00000000 </v>
   <v>       0.00000000       0.00000000       0.00000000 </v>
   <v>       0.00000000       0.00000000       0.03333333 </v>
   <v>       0.00000000       0.00000000       0.06666667 </v>
   <v>       0.00000000       0.00000000       0.10000000 </v>
   <v>       0.00000000       0.00000000       0.13333333 </v>
   <v>       0.00000000       0.00000000       0.16666667 </v>
   <v>       0.00000000       0.00000000       0.20000000 </v>
   <v>       0.00000000       0.00000000       0.23333333 </v>
   <v>       0.00000000       0.00000000       0.26666667 </v>
   <v>       0.00000000       0.00000000       0.30000000 </v>
   <v>       0.00000000       0.00000000       0.33333333 </v>
   <v>       0.00000000       0.00000000       0.36666667 </v>
   <v>       0.00000000       0.00000000       0.40000000 </v>
   <v>       0.00000000       0.00000000       0.43333333 </v>
   <v>       0.00000000       0.00000000       0.46666667 </v>
   <v>       0.00000000       0.00000000       0.50000000 </v>
   <v>       0.00000000       0.00000000       0.50000000 </v>
   <v>       0.00000000       0.03333333       0.50000000 </v>
   <v>       0.00000000       0.06666667       0.50000000 </v>
   <v>       0.00000000       0.10000000       0.50000000 </v>
   <v>       0.00000000       0.13333333       0.50000000 </v>
   <v>       0.00000000       0.16666667       0.50000000 </v>
   <v>       0.00000000       0.20000000       0.50000000 </v>
   <v>       0.00000000       0.23333333       0.50000000 </v>
   <v>       0.00000000       0.26666667       0.50000000 </v>
   <v>       0.00000000       0.30000000       0.50000000 </v>
   <v>       0.00000000       0.33333333       0.50000000 </v>
   <v>       0.00000000       0.36666667       0.50000000 </v>
   <v>       0.00000000       0.40000000       0.50000000 </v>
   <v>       0.00000000       0.43333333       0.50000000 </v>
   <v>       0.00000000       0.46666667       0.50000000 </v>
   <v>       0.00000000       0.50000000       0.50000000 </v>
   <v>       0.00000000       0.50000000       0.50000000 </v>
   <v>       0.03333333       0.50000000       0.50000000 </v>
   <v>       0.06666667       0.50000000       0.50000000 </v>
   <v>       0.10000000       0.50000000       0.50000000 </v>
   <v>       0.13333333       0.50000000       0.50000000 </v>
   <v>       0.16666667       0.50000000       0.50000000 </v>
   <v>       0.20000000       0.50000000       0.50000000 </v>
   <v>       0.23333333       0.50000000       0.50000000 </v>
   <v>       0.26666667       0.50000000       0.50000000 </v>
   <v>       0.30000000       0.50000000       0.50000000 </v>
   <v>       0.33333333       0.50000000       0.50000000 </v>
   <v>       0.36666667       0.50000000       0.50000000 </v>
   <v>       0.40000000       0.50000000       0.50000000 </v>
   <v>       0.43333333       0.50000000       0.50000000 </v>
   <v>       0.46666667       0.50000000       0.50000000 </v>
   <v>       0.50000000       0.50000000       0.50000000 </v>
   <v>       0.50000000       0.50000000       0.50000000 </v>
   <v>       0.46666667       0.46666667       0.50000000 </v>
   <v>       0.43333333       0.43333333       0.50000000 </v>
   <v>       0.40000000       0.40000000       0.50000000 </v>
   <v>       0.36666667       0.36666667       0.50000000 </v>
   <v>       0.33333333       0.33333333       0.50000000 </v>
   <v>       0.30000000       0.30000000       0.50000000 </v>
   <v>       0.26666667       0.26666667       0.50000000 </v>
   <v>       0.23333333       0.23333333       0.50000000 </v>
   <v>       0.20000000       0.20000000       0.50000000 </v>
   <v>       0.16666667       0.16666667       0.50000000 </v>
   <v>       0.13333333       0.13333333       0.50000000 </v>
   <v>       0.10000000       0.10000000       0.50000000 </v>
   <v>       0.06666667       0.06666667       0.50000000 </v>
   <v>       0.03333333       0.03333333       0.50000000 </v>
   <v>       0.00000000       0.00000000       0.50000000 </v>
   <v>       0.00000000       0.50000000       0.00000000 </v>
   <v>       0.00000000       0.50000000       0.03333333 </v>
   <v>       0.00000000       0.50000000       0.06666667 </v>
   <v>       0.00000000       0.50000000       0.10000000 </v>
   <v>       0.00000000       0.50000000       0.13333333 </v>
   <v>       0.00000000       0.50000000       0.16666667 </v>
   <v>       0.00000000       0.50000000       0.20000000 </v>
   <v>       0.00000000       0.50000000       0.23333333 </v>
   <v>       0.00000000       0.50000000       0.26666667 </v>
   <v>       0.00000000       0.50000000       0.30000000 </v>
   <v>       0.00000000       0.50000000       0.33333333 </v>
   <v>       0.00000000       0.50000000       0.36666667 </v>
   <v>       0.00000000       0.50000000       0.40000000 </v>
   <v>       0.00000000       0.50000000       0.43333333 </v>
   <v>       0.00000000       0.50000000       0.46666667 </v>
   <v>       0.00000000       0.50000000       0.50000000 </v>
   <v>       0.50000000       0.50000000       0.00000000 </v>
   <v>       0.50000000       0.50000000       0.03333333 </v>
   <v>       0.50000000       0.50000000       0.06666667 </v>
   <v>       0.50000000       0.50000000       0.10000000 </v>
   <v>       0.50000000       0.50000000       0.13333333 </v>
   <v>       0.50000000       0.50000000       0.16666667 </v>
   <v>       0.50000000       0.50000000       0.20000000 </v>
   <v>       0.50000000       0.50000000       0.23333333 </v>
   <v>       0.50000000       0.50000000       0.26666667 </v>
   <v>       0.50000000       0.50000000       0.30000000 </v>
   <v>       0.50000000       0.50000000       0.33333333 </v>
   <v>       0.50000000       0.50000000       0.36666667 </v>
   <v>       0.50000000       0.50000000       0.40000000 </v>
   <v>       0.50000000       0.50000000       0.43333333 </v>
   <v>       0.50000000       0.50000000       0.46666667 </v>
   <v>       0.50000000       0.50000000       0.50000000 </v>
  </varray>
  <varray name="weights" >
   <v>       0.00694444 </v>
   <v>       0.00694444 </v>
   <v>       0.00694444 </v>
   <v>       0.00694444 </v>
   <v>       0.00694444 </v>
   <v>       0.00694444 </v>
   <v>       0.00694444 </v>
   <v>       0.00694444 </v>
   <v>       0.00694444 </v>
   <v>       0.00694444 </v>
   <v>       0.00694444 </v>
   <v>       0.00694444 </v>
   <v>       0.00694444 </v>
   <v>       0.00694444 </v>
   <v>       0.00694444 </v>
   <v>       0.00694444 </v>
   <v>       0.00694444 </v>
   <v>       0.00694444 </v>
   <v>       0.00694444 </v>
   <v>       0.00694444 </v>
   <v>       0.00694444 </v>
   <v>       0.00694444 </v>
   <v>       0.00694444 </v>
   <v>       0.00694444 </v>
   <v>       0.00694444 </v>
   <v>       0.00694444 </v>
   <v>       0.00694444 </v>
   <v>       0.00694444 </v>
   <v>       0.00694444 </v>
   <v>       0.00694444 </v>
   <v>       0.00694444 </v>
   <v>       0.00694444 </v>
   <v>       0.00694444 </v>
   <v>       0.00694444 </v>
   <v>       0.00694444 </v>
   <v>       0.00694444 </v>
   <v>       0.00694444 </v>
   <v>       0.00694444 </v>
   <v>       0.00694444 </v>
   <v>       0.00694444 </v>
   <v>       0.00694444 </v>
   <v>       0.00694444 </v>
   <v>       0.00694444 </v>
   <v>       0.00694444 </v>
   <v>       0.00694444 </v>
   <v>       0.00694444 </v>
   <v>       0.00694444 </v>
   <v>       0.00694444 </v>
   <v>       0.00694444 </v>
   <v>       0.00694444 </v>
   <v>       0.00694444 </v>
   <v>       0.00694444 </v>
   <v>       0.00694444 </v>
   <v>       0.00694444 </v>
   <v>       0.00694444 </v>
   <v>       0.00694444 </v>
   <v>       0.00694444 </v>
   <v>       0.00694444 </v>
   <v>       0.00694444 </v>
   <v>       0.00694444 </v>
   <v>       0.00694444 </v>
   <v>       0.00694444 </v>
   <v>       0.00694444 </v>
   <v>       0.00694444 </v>
   <v>       0.00694444 </v>
   <v>       0.00694444 </v>
   <v>       0.00694444 </v>
   <v>       0.00694444 </v>
   <v>       0.00694444 </v>
   <v>       0.00694444 </v>
   <v>       0.00694444 </v>
   <v>       0.00694444 </v>
   <v>       0.00694444 </v>
   <v>       0.00694444 </v>
   <v>       0.00694444 </v>
   <v>       0.00694444 </v>
   <v>       0.00694444 </v>
   <v>       0.00694444 </v>
   <v>       0.00694444 </v>
   <v>       0.00694444 </v>
   <v>       0.00694444 </v>
   <v>       0.00694444 </v>
   <v>       0.00694444 </v>
   <v>       0.00694444 </v>
   <v>       0.00694444 </v>
   <v>       0.00694444 </v>
   <v>       0.00694444 </v>
   <v>       0.00694444 </v>
   <v>       0.00694444 </v>
   <v>       0.00694444 </v>
   <v>       0.00694444 </v>
   <v>       0.00694444 </v>
   <v>       0.00694444 </v>
   <v>       0.00694444 </v>
   <v>       0.00694444 </v>
   <v>       0.00694444 </v>
   <v>       0.00694444 </v>
   <v>       0.00694444 </v>
   <v>       0.00694444 </v>
   <v>       0.00694444 </v>
   <v>       0.00694444 </v>
   <v>       0.00694444 </v>
   <v>       0.00694444 </v>
   <v>       0.00694444 </v>
   <v>       0.00694444 </v>
   <v>       0.00694444 </v>
   <v>       0.00694444 </v>
   <v>       0.00694444 </v>
   <v>       0.00694444 </v>
   <v>       0.00694444 </v>
   <v>       0.00694444 </v>
   <v>       0.00694444 </v>
   <v>       0.00694444 </v>
   <v>       0.00694444 </v>
   <v>       0.00694444 </v>
   <v>       0.00694444 </v>
   <v>       0.00694444 </v>
   <v>       0.00694444 </v>
   <v>       0.00694444 </v>
   <v>       0.00694444 </v>
   <v>       0.00694444 </v>
   <v>       0.00694444 </v>
   <v>       0.00694444 </v>
   <v>       0.00694444 </v>
   <v>       0.00694444 </v>
   <v>       0.00694444 </v>
   <v>       0.00694444 </v>
   <v>       0.00694444 </v>
   <v>       0.00694444 </v>
   <v>       0.00694444 </v>
   <v>       0.00694444 </v>
   <v>       0.00694444 </v>
   <v>       0.00694444 </v>
   <v>       0.00694444 </v>
   <v>       0.00694444 </v>
   <v>       0.00694444 </v>
   <v>       0.00694444 </v>
   <v>       0.00694444 </v>
   <v>       0.00694444 </v>
   <v>       0.00694444 </v>
   <v>       0.00694444 </v>
   <v>       0.00694444 </v>
   <v>       0.00694444 </v>
   <v>       0.00694444 </v>
  </varray>
 </kpoints>
 <parameters>
  <separator name="general" >
   <i type="string" name="SYSTEM">InTe</i>
   <i type="logical" name="LCOMPAT"> F  </i>
  </separator>
  <separator name="electronic" >
   <i type="string" name="PREC">accura</i>
   <i name="ENMAX">    520.00000000</i>
   <i name="ENAUG">    449.70400000</i>
   <i name="EDIFF">      0.00001000</i>
   <i type="int" name="IALGO">    68</i>
   <i type="int" name="IWAVPR">    10</i>
   <i type="int" name="NBANDS">   112</i>
   <i name="NELECT">    152.00000000</i>
   <i type="int" name="TURBO">     0</i>
   <i type="int" name="IRESTART">     0</i>
   <i type="int" name="NREBOOT">     0</i>
   <i type="int" name="NMIN">     0</i>
   <i name="EREF">      0.00000000</i>
   <separator name="electronic smearing" >
    <i type="int" name="ISMEAR">     0</i>
    <i name="SIGMA">      0.05000000</i>
    <i name="KSPACING">      0.50000000</i>
    <i type="logical" name="KGAMMA"> T  </i>
   </separator>
   <separator name="electronic projectors" >
    <i type="logical" name="LREAL"> F  </i>
    <v name="ROPT">      0.00000000      0.00000000</v>
    <i type="int" name="LMAXPAW">  -100</i>
    <i type="int" name="LMAXMIX">     2</i>
    <i type="logical" name="NLSPLINE"> F  </i>
   </separator>
   <separator name="electronic startup" >
    <i type="int" name="ISTART">     0</i>
    <i type="int" name="ICHARG">    11</i>
    <i type="int" name="INIWAV">     1</i>
   </separator>
   <separator name="electronic spin" >
    <i type="int" name="ISPIN">     2</i>
    <i type="logical" name="LNONCOLLINEAR"> F  </i>
    <v name="MAGMOM">      1.00000000      1.00000000      1.00000000      1.00000000      1.00000000      1.00000000      1.00000000      1.00000000      1.00000000      1.00000000      1.00000000      1.00000000      1.00000000      1.00000000      1.00000000      1.00000000</v>
    <i name="NUPDOWN">     -1.00000000</i>
    <i type="logical" name="LSORBIT"> F  </i>
    <v name="SAXIS">      0.00000000      0.00000000      1.00000000</v>
    <i type="logical" name="LSPIRAL"> F  </i>
    <v name="QSPIRAL">      0.00000000      0.00000000      0.00000000</v>
    <i type="logical" name="LZEROZ"> F  </i>
   </separator>
   <separator name="electronic exchange-correlation" >
    <i type="logical" name="LASPH"> F  </i>
    <i type="logical" name="LMETAGGA"> F  </i>
   </separator>
   <separator name="electronic convergence" >
    <i type="int" name="NELM">    60</i>
    <i type="int" name="NELMDL">    -5</i>
    <i type="int" name="NELMIN">     2</i>
    <i name="ENINI">    520.00000000</i>
    <separator name="electronic convergence detail" >
     <i type="logical" name="LDIAG"> T  </i>
     <i type="logical" name="LSUBROT"> F  </i>
     <i name="WEIMIN">      0.00000000</i>
     <i name="EBREAK">      0.00000002</i>
     <i name="DEPER">      0.30000000</i>
     <i type="int" name="NRMM">     4</i>
     <i name="TIME">      0.40000000</i>
    </separator>
   </separator>
   <separator name="electronic mixer" >
    <i name="AMIX">      0.40000000</i>
    <i name="BMIX">      1.00000000</i>
    <i name="AMIN">      0.10000000</i>
    <i name="AMIX_MAG">      1.60000000</i>
    <i name="BMIX_MAG">      1.00000000</i>
    <separator name="electronic mixer details" >
     <i type="int" name="IMIX">     4</i>
     <i type="logical" name="MIXFIRST"> F  </i>
     <i type="int" name="MAXMIX">   -45</i>
     <i name="WC">    100.00000000</i>
     <i type="int" name="INIMIX">     1</i>
     <i type="int" name="MIXPRE">     1</i>
     <i type="int" name="MREMOVE">     5</i>
    </separator>
   </separator>
   <separator name="electronic dipolcorrection" >
    <i type="logical" name="LDIPOL"> F  </i>
    <i type="logical" name="LMONO"> F  </i>
    <i type="int" name="IDIPOL">     0</i>
    <i name="EPSILON">      1.00000000</i>
    <v name="DIPOL">   -100.00000000   -100.00000000   -100.00000000</v>
    <i name="EFIELD">      0.00000000</i>
   </separator>
  </separator>
  <separator name="grids" >
   <i type="int" name="NGX">    64</i>
   <i type="int" name="NGY">    64</i>
   <i type="int" name="NGZ">    54</i>
   <i type="int" name="NGXF">   128</i>
   <i type="int" name="NGYF">   128</i>
   <i type="int" name="NGZF">   108</i>
   <i type="logical" name="ADDGRID"> T  </i>
  </separator>
  <separator name="ionic" >
   <i type="int" name="NSW">     0</i>
   <i type="int" name="IBRION">    -1</i>
   <i type="int" name="MDALGO">     0</i>
   <i type="int" name="ISIF">     2</i>
   <i name="PSTRESS">      0.00000000</i>
   <i name="EDIFFG">      0.00010000</i>
   <i type="int" name="NFREE">     0</i>
   <i name="POTIM">      0.50000000</i>
   <i name="SMASS">     -3.00000000</i>
   <i name="SCALEE">      1.00000000</i>
  </separator>
  <separator name="ionic md" >
   <i name="TEBEG">      0.00010000</i>
   <i name="TEEND">      0.00010000</i>
   <i type="int" name="NBLOCK">     1</i>
   <i type="int" name="KBLOCK">     1</i>
   <i type="int" name="NPACO">   256</i>
   <i name="APACO">     16.00000000</i>
  </separator>
  <separator name="symmetry" >
   <i type="int" name="ISYM">     2</i>
   <i name="SYMPREC">      0.00001000</i>
  </separator>
  <separator name="dos" >
   <i type="int" name="LORBIT">     0</i>
   <v name="RWIGS">     -1.00000000     -1.00000000</v>
   <i type="int" name="NEDOS">   301</i>
   <i name="EMIN">     10.00000000</i>
   <i name="EMAX">    -10.00000000</i>
   <i name="EFERMI">      0.00000000</i>
  </separator>
  <separator name="writing" >
   <i type="int" name="NWRITE">     1</i>
   <i type="logical" name="LWAVE"> F  </i>
   <i type="logical" name="LDOWNSAMPLE"> F  </i>
   <i type="logical" name="LCHARG"> F  </i>
   <i type="logical" name="LPARD"> F  </i>
   <i type="logical" name="LVTOT"> F  </i>
   <i type="logical" name="LVHAR"> F  </i>
   <i type="logical" name="LELF"> F  </i>
   <i type="logical" name="LOPTICS"> F  </i>
   <v name="STM">      0.00000000      0.00000000      0.00000000      0.00000000      0.00000000      0.00000000      0.00000000</v>
  </separator>
  <separator name="performance" >
   <i type="int" name="NPAR">    16</i>
   <i type="int" name="NSIM">     4</i>
   <i type="int" name="NBLK">    -1</i>
   <i type="logical" name="LPLANE"> T  </i>
   <i type="logical" name="LSCALAPACK"> T  </i>
   <i type="logical" name="LSCAAWARE"> F  </i>
   <i type="logical" name="LSCALU"> F  </i>
   <i type="logical" name="LASYNC"> F  </i>
   <i type="logical" name="LORBITALREAL"> F  </i>
  </separator>
  <separator name="miscellaneous" >
   <i type="int" name="IDIOT">     3</i>
   <i type="int" name="ISPECIAL">     0</i>
   <i type="logical" name="LMUSIC"> F  </i>
   <v name="POMASS">    114.82000000    127.60000000</v>
   <v name="DARWINR">      0.00000000      0.00000000</v>
   <v name="DARWINV">      1.00000000      1.00000000</v>
   <i type="logical" name="LCORR"> T  </i>
  </separator>
  <i type="logical" name="GGA_COMPAT"> T  </i>
  <i type="logical" name="LBERRY"> F  </i>
  <i type="int" name="ICORELEVEL">     0</i>
  <i type="logical" name="LDAU"> F  </i>
  <i type="int" name="I_CONSTRAINED_M">     0</i>
  <separator name="electronic exchange-correlation" >
   <i type="string" name="GGA">--</i>
   <i type="int" name="VOSKOWN">     0</i>
   <i type="logical" name="LHFCALC"> F  </i>
   <i type="string" name="PRECFOCK"></i>
   <i type="logical" name="LSYMGRAD"> F  </i>
   <i type="logical" name="LHFONE"> F  </i>
   <i type="logical" name="LRHFCALC"> F  </i>
   <i type="logical" name="LTHOMAS"> F  </i>
   <i type="logical" name="LMODELHF"> F  </i>
   <i name="ENCUT4O">     -1.00000000</i>
   <i type="int" name="EXXOEP">     0</i>
   <i type="int" name="FOURORBIT">     0</i>
   <i name="AEXX">      0.00000000</i>
   <i name="HFALPHA">      0.00000000</i>
   <i name="MCALPHA">      0.00000000</i>
   <i name="ALDAX">      1.00000000</i>
   <i name="AGGAX">      1.00000000</i>
   <i name="ALDAC">      1.00000000</i>
   <i name="AGGAC">      1.00000000</i>
   <i type="int" name="NKREDX">     1</i>
   <i type="int" name="NKREDY">     1</i>
   <i type="int" name="NKREDZ">     1</i>
   <i type="logical" name="SHIFTRED"> F  </i>
   <i type="logical" name="ODDONLY"> F  </i>
   <i type="logical" name="EVENONLY"> F  </i>
   <i type="int" name="LMAXFOCK">     0</i>
   <i type="int" name="NMAXFOCKAE">     0</i>
   <i type="logical" name="LFOCKAEDFT"> F  </i>
   <i name="HFSCREEN">      0.00000000</i>
   <i name="HFSCREENC">      0.00000000</i>
   <i type="int" name="NBANDSGWLOW">     0</i>
  </separator>
  <separator name="vdW DFT" >
   <i type="logical" name="LUSE_VDW"> F  </i>
   <i name="Zab_VDW">     -0.84910000</i>
   <i name="PARAM1">      0.12340000</i>
   <i name="PARAM2">      1.00000000</i>
   <i name="PARAM3">      0.00000000</i>
  </separator>
  <separator name="model GW" >
   <i type="int" name="MODEL_GW">     0</i>
   <i name="MODEL_EPS0">     20.14086725</i>
   <i name="MODEL_ALPHA">      1.00000000</i>
  </separator>
  <separator name="linear response parameters" >
   <i type="logical" name="LEPSILON"> F  </i>
   <i type="logical" name="LRPA"> F  </i>
   <i type="logical" name="LNABLA"> F  </i>
   <i type="logical" name="LVEL"> F  </i>
   <i type="int" name="KINTER">     0</i>
   <i name="CSHIFT">      0.10000000</i>
   <i name="OMEGAMAX">     -1.00000000</i>
   <i name="DEG_THRESHOLD">      0.00200000</i>
   <i name="RTIME">     -0.10000000</i>
   <i name="WPLASMAI">      0.00000000</i>
   <v name="DFIELD">      0.00000000      0.00000000      0.00000000</v>
   <v name="WPLASMA">      0.00000000      0.00000000      0.00000000      0.00000000      0.00000000      0.00000000      0.00000000      0.00000000      0.00000000</v>
  </separator>
  <separator name="orbital magnetization" >
   <i type="logical" name="NUCIND"> F  </i>
   <v name="MAGPOS">      0.00000000      0.00000000      0.00000000</v>
   <i type="logical" name="LNICSALL"> T  </i>
   <i type="logical" name="ORBITALMAG"> F  </i>
   <i type="logical" name="LMAGBLOCH"> F  </i>
   <i type="logical" name="LCHIMAG"> F  </i>
   <i type="logical" name="LGAUGE"> T  </i>
   <i type="int" name="MAGATOM">     0</i>
   <v name="MAGDIPOL">      0.00000000      0.00000000      0.00000000</v>
   <v name="AVECCONST">      0.00000000      0.00000000      0.00000000</v>
  </separator>
  <separator name="response functions" >
   <i type="logical" name="LADDER"> F  </i>
   <i type="logical" name="LRPAFORCE"> F  </i>
   <i type="logical" name="LFXC"> F  </i>
   <i type="logical" name="LHARTREE"> T  </i>
   <i type="int" name="IBSE">     0</i>
   <v type="int" name="KPOINT">    -1     0     0     0</v>
   <i type="logical" name="LTCTE"> F  </i>
   <i type="logical" name="LTETE"> F  </i>
   <i type="logical" name="LTRIPLET"> F  </i>
   <i type="logical" name="LFXCEPS"> F  </i>
   <i type="logical" name="LFXHEG"> F  </i>
   <i type="int" name="NATURALO">     2</i>
   <i type="logical" name="L2ORDER"> F  </i>
   <i type="logical" name="LMP2LT"> F  </i>
   <i type="logical" name="LUSEW"> F  </i>
   <i name="ENCUTGW">     -2.00000000</i>
   <i name="ENCUTGWSOFT">     -2.00000000</i>
   <i name="ENCUTLF">     -1.00000000</i>
   <i type="int" name="LMAXMP2">    -1</i>
   <i name="SCISSOR">      0.00000000</i>
   <i type="int" name="NOMEGA">     0</i>
   <i type="int" name="NOMEGAR">     0</i>
   <i type="int" name="NBANDSGW">    -1</i>
   <i type="int" name="NBANDSO">    -1</i>
   <i type="int" name="NBANDSV">    -1</i>
   <i type="int" name="NELM">     1</i>
   <i type="int" name="NELMHF">     1</i>
   <i type="int" name="DIM">     3</i>
   <i type="int" name="ANTIRES">     0</i>
   <i name="OMEGAMAX">    -30.00000000</i>
   <i name="OMEGAMIN">    -30.00000000</i>
   <i name="OMEGATL">   -200.00000000</i>
   <i type="int" name="OMEGAGRID">   140</i>
   <i name="CSHIFT">     -0.10000000</i>
   <i type="logical" name="SELFENERGY"> F  </i>
   <i type="logical" name="LSPECTRAL"> F  </i>
   <i type="logical" name="LSPECTRALGW"> F  </i>
   <i type="logical" name="LSINGLES"> F  </i>
   <i type="logical" name="LFERMIGW"> F  </i>
   <i type="logical" name="ODDONLYGW"> F  </i>
   <i type="logical" name="EVENONLYGW"> F  </i>
   <i type="int" name="NKREDLFX">     1</i>
   <i type="int" name="NKREDLFY">     1</i>
   <i type="int" name="NKREDLFZ">     1</i>
   <i type="int" name="MAXMEM">  2800</i>
   <i type="int" name="TELESCOPE">     0</i>
   <i type="int" name="TAUPAR">     1</i>
   <i type="int" name="OMEGAPAR">    -1</i>
   <i name="LAMBDA">      1.00000000</i>
  </separator>
  <separator name="External order field" >
   <i name="OFIELD_KAPPA">      0.00000000</i>
   <v name="OFIELD_K">      0.00000000      0.00000000      0.00000000</v>
   <i name="OFIELD_Q6_NEAR">      0.00000000</i>
   <i name="OFIELD_Q6_FAR">      0.00000000</i>
   <i name="OFIELD_A">      0.00000000</i>
  </separator>
 </parameters>
 <atominfo>
  <atoms>      16 </atoms>
  <types>       2 </types>
  <array name="atoms" >
   <dimension dim="1">ion</dimension>
   <field type="string">element</field>
   <field type="int">atomtype</field>
   <set>
    <rc><c>In</c><c>   1</c></rc>
    <rc><c>In</c><c>   1</c></rc>
    <rc><c>In</c><c>   1</c></rc>
    <rc><c>In</c><c>   1</c></rc>
    <rc><c>In</c><c>   1</c></rc>
    <rc><c>In</c><c>   1</c></rc>
    <rc><c>In</c><c>   1</c></rc>
    <rc><c>In</c><c>   1</c></rc>
    <rc><c>Te</c><c>   2</c></rc>
    <rc><c>Te</c><c>   2</c></rc>
    <rc><c>Te</c><c>   2</c></rc>
    <rc><c>Te</c><c>   2</c></rc>
    <rc><c>Te</c><c>   2</c></rc>
    <rc><c>Te</c><c>   2</c></rc>
    <rc><c>Te</c><c>   2</c></rc>
    <rc><c>Te</c><c>   2</c></rc>
   </set>
  </array>
  <array name="atomtypes" >
   <dimension dim="1">type</dimension>
   <field type="int">atomspertype</field>
   <field type="string">element</field>
   <field>mass</field>
   <field>valence</field>
   <field type="string">pseudopotential</field>
   <set>
    <rc><c>   8</c><c>In</c><c>    114.82000000</c><c>     13.00000000</c><c>  PAW_PBE In_d 06Sep2000                </c></rc>
    <rc><c>   8</c><c>Te</c><c>    127.60000000</c><c>      6.00000000</c><c>  PAW_PBE Te 08Apr2002                  </c></rc>
   </set>
  </array>
 </atominfo>
 <structure name="initialpos" >
  <crystal>
   <varray name="basis" >
    <v>       8.62243652       0.00000000       0.00000000 </v>
    <v>       0.00000000       8.62243652       0.00000000 </v>
    <v>       0.00000000       0.00000000       7.22415221 </v>
   </varray>
   <i name="volume">    537.08979340 </i>
   <varray name="rec_basis" >
    <v>       0.11597650       0.00000000       0.00000000 </v>
    <v>       0.00000000       0.11597650       0.00000000 </v>
    <v>       0.00000000       0.00000000       0.13842455 </v>
   </varray>
  </crystal>
  <varray name="positions" >
   <v>       0.00000000       0.00000000       0.25000000 </v>
   <v>       0.00000000       0.00000000       0.75000000 </v>
   <v>       0.50000000       0.50000000       0.75000000 </v>
   <v>       0.50000000       0.50000000       0.25000000 </v>
   <v>       0.00000000       0.50000000       0.25000000 </v>
   <v>       0.00000000       0.50000000       0.75000000 </v>
   <v>       0.50000000       0.00000000       0.25000000 </v>
   <v>       0.50000000       0.00000000       0.75000000 </v>
   <v>       0.18200020       0.68200018       0.00000000 </v>
   <v>       0.81799982       0.31799982       0.00000000 </v>
   <v>       0.31799982       0.18200020       0.00000000 </v>
   <v>       0.68200018       0.81799982       0.00000000 </v>
   <v>       0.81799982       0.68200018       0.50000000 </v>
   <v>       0.18200020       0.31799982       0.50000000 </v>
   <v>       0.68200018       0.18200020       0.50000000 </v>
   <v>       0.31799982       0.81799982       0.50000000 </v>
  </varray>
 </structure>
 <calculation>
  <scstep>
   <time name="dav">   42.63   42.77</time>
   <time name="total">   42.81   42.96</time>
   <energy>
    <i name="alphaZ">    169.64919146 </i>
    <i name="ewald">  -9759.38513040 </i>
    <i name="hartreedc">  -4663.84750298 </i>
    <i name="XCdc">    106.72922192 </i>
    <i name="pawpsdc">  16892.69270640 </i>
    <i name="pawaedc"> -16508.65764881 </i>
    <i name="eentropy">     -0.00634995 </i>
    <i name="bandstr">    791.82475627 </i>
    <i name="atom">  14400.79018794 </i>
    <i name="e_fr_energy">   1429.78943185 </i>
    <i name="e_wo_entrp">   1429.79578180 </i>
    <i name="e_0_energy">   1429.79260683 </i>
   </energy>
  </scstep>
  <scstep>
   <time name="dav">   41.77   41.86</time>
   <time name="total">   41.78   41.86</time>
   <energy>
    <i name="e_fr_energy">    150.94837740 </i>
    <i name="e_wo_entrp">    150.95254162 </i>
    <i name="e_0_energy">    150.95045951 </i>
   </energy>
  </scstep>
  <scstep>
   <time name="dav">   46.20   46.22</time>
   <time name="total">   46.21   46.23</time>
   <energy>
    <i name="e_fr_energy">    -37.40197324 </i>
    <i name="e_wo_entrp">    -37.39766409 </i>
    <i name="e_0_energy">    -37.39981867 </i>
   </energy>
  </scstep>
  <scstep>
   <time name="dav">   47.56   47.59</time>
   <time name="total">   47.56   47.60</time>
   <energy>
    <i name="e_fr_energy">    -49.42828148 </i>
    <i name="e_wo_entrp">    -49.42426250 </i>
    <i name="e_0_energy">    -49.42627199 </i>
   </energy>
  </scstep>
  <scstep>
   <time name="dav">   53.24   53.27</time>
   <time name="total">   53.24   53.28</time>
   <energy>
    <i name="e_fr_energy">    -50.07198712 </i>
    <i name="e_wo_entrp">    -50.06802505 </i>
    <i name="e_0_energy">    -50.07000608 </i>
   </energy>
  </scstep>
  <scstep>
   <time name="diag">   12.82   12.82</time>
   <time name="diis">   17.15   17.17</time>
   <time name="orth">    1.75    1.75</time>
   <time name="total">   31.73   31.75</time>
   <energy>
    <i name="e_fr_energy">    -50.08908893 </i>
    <i name="e_wo_entrp">    -50.08513242 </i>
    <i name="e_0_energy">    -50.08711068 </i>
   </energy>
  </scstep>
  <scstep>
   <time name="diag">   12.83   12.83</time>
   <time name="diis">   21.37   21.39</time>
   <time name="orth">    1.82    1.82</time>
   <time name="total">   36.03   36.05</time>
   <energy>
    <i name="e_fr_energy">    -50.09122839 </i>
    <i name="e_wo_entrp">    -50.08727306 </i>
    <i name="e_0_energy">    -50.08925072 </i>
   </energy>
  </scstep>
  <scstep>
   <time name="diag">   13.65   13.68</time>
   <time name="diis">   21.08   21.10</time>
   <time name="orth">    1.83    1.83</time>
   <time name="total">   36.57   36.63</time>
   <energy>
    <i name="e_fr_energy">    -50.09133131 </i>
    <i name="e_wo_entrp">    -50.08737597 </i>
    <i name="e_0_energy">    -50.08935364 </i>
   </energy>
  </scstep>
  <scstep>
   <time name="diag">   12.75   12.75</time>
   <time name="diis">   16.36   16.38</time>
   <time name="orth">    1.75    1.75</time>
   <time name="total">   30.87   30.89</time>
   <energy>
    <i name="e_fr_energy">    -50.09134364 </i>
    <i name="e_wo_entrp">    -50.08738830 </i>
    <i name="e_0_energy">    -50.08936597 </i>
   </energy>
  </scstep>
  <scstep>
   <time name="diag">   12.82   12.82</time>
   <time name="diis">   10.43   10.45</time>
   <time name="orth">    1.75    1.75</time>
   <time name="total">   25.01   25.03</time>
   <energy>
    <i name="alphaZ">    169.64919146 </i>
    <i name="ewald">  -9759.38513040 </i>
    <i name="hartreedc">  -4663.84750298 </i>
    <i name="XCdc">    106.72922192 </i>
    <i name="pawpsdc">  16892.69270640 </i>
    <i name="pawaedc"> -16508.65764881 </i>
    <i name="eentropy">     -0.00395534 </i>
    <i name="bandstr">   -688.05841520 </i>
    <i name="atom">  14400.79018794 </i>
    <i name="e_fr_energy">    -50.09134500 </i>
    <i name="e_wo_entrp">    -50.08738966 </i>
    <i name="e_0_energy">    -50.08936733 </i>
   </energy>
  </scstep>
  <structure>
   <crystal>
    <varray name="basis" >
     <v>       8.62243652       0.00000000       0.00000000 </v>
     <v>       0.00000000       8.62243652       0.00000000 </v>
     <v>       0.00000000       0.00000000       7.22415221 </v>
    </varray>
    <i name="volume">    537.08979340 </i>
    <varray name="rec_basis" >
     <v>       0.11597650       0.00000000       0.00000000 </v>
     <v>       0.00000000       0.11597650       0.00000000 </v>
     <v>       0.00000000       0.00000000       0.13842455 </v>
    </varray>
   </crystal>
   <varray name="positions" >
    <v>       0.00000000       0.00000000       0.25000000 </v>
    <v>       0.00000000       0.00000000       0.75000000 </v>
    <v>       0.50000000       0.50000000       0.75000000 </v>
    <v>       0.50000000       0.50000000       0.25000000 </v>
    <v>       0.00000000       0.50000000       0.25000000 </v>
    <v>       0.00000000       0.50000000       0.75000000 </v>
    <v>       0.50000000       0.00000000       0.25000000 </v>
    <v>       0.50000000       0.00000000       0.75000000 </v>
    <v>       0.18200020       0.68200018       0.00000000 </v>
    <v>       0.81799982       0.31799982       0.00000000 </v>
    <v>       0.31799982       0.18200020       0.00000000 </v>
    <v>       0.68200018       0.81799982       0.00000000 </v>
    <v>       0.81799982       0.68200018       0.50000000 </v>
    <v>       0.18200020       0.31799982       0.50000000 </v>
    <v>       0.68200018       0.18200020       0.50000000 </v>
    <v>       0.31799982       0.81799982       0.50000000 </v>
   </varray>
  </structure>
  <varray name="forces" >
   <v>       0.00000000      -0.00000000      -0.00000000 </v>
   <v>       0.00000000       0.00000000      -0.00000000 </v>
   <v>       0.00000000      -0.00000000      -0.00000000 </v>
   <v>       0.00000000      -0.00000000      -0.00000000 </v>
   <v>       0.00000000       0.00000000       0.00000000 </v>
   <v>       0.00000000       0.00000000      -0.00000000 </v>
   <v>       0.00000000      -0.00000000      -0.00000000 </v>
   <v>       0.00000000       0.00000000      -0.00000000 </v>
   <v>      -0.00663935      -0.00663935       0.00000000 </v>
   <v>       0.00663935       0.00663935       0.00000000 </v>
   <v>       0.00663935      -0.00663935      -0.00000000 </v>
   <v>      -0.00663935       0.00663935       0.00000000 </v>
   <v>       0.00663935      -0.00663935       0.00000000 </v>
   <v>      -0.00663935       0.00663935      -0.00000000 </v>
   <v>      -0.00663935      -0.00663935       0.00000000 </v>
   <v>       0.00663935       0.00663935      -0.00000000 </v>
  </varray>
  <varray name="stress" >
   <v>      -0.28581102       0.00000000       0.00000000 </v>
   <v>       0.00000000      -0.28581102       0.00000000 </v>
   <v>       0.00000000       0.00000000       1.30385277 </v>
  </varray>
  <energy>
   <i name="e_fr_energy">    -50.09134500 </i>
   <i name="e_wo_entrp">    -50.08936733 </i>
   <i name="e_0_energy">     -0.00395534 </i>
  </energy>
  <time name="totalsc">  412.38  412.84</time>
  <eigenvalues>
   <array>
    <dimension dim="1">band</dimension>
    <dimension dim="2">kpoint</dimension>
    <dimension dim="3">spin</dimension>
    <field>eigene</field>
    <field>occ</field>
    <set>
     <set comment="spin 1">
      <set comment="kpoint 1">
       <r>   -9.5771    1.0000 </r>
       <r>   -9.5771    1.0000 </r>
       <r>   -9.5732    1.0000 </r>
       <r>   -9.5732    1.0000 </r>
       <r>   -9.5247    1.0000 </r>
       <r>   -9.5246    1.0000 </r>
       <r>   -9.5094    1.0000 </r>
       <r>   -9.4966    1.0000 </r>
       <r>   -9.4498    1.0000 </r>
       <r>   -9.4458    1.0000 </r>
       <r>   -9.4308    1.0000 </r>
       <r>   -9.4308    1.0000 </r>
       <r>   -9.4304    1.0000 </r>
       <r>   -9.4304    1.0000 </r>
       <r>   -9.4107    1.0000 </r>
       <r>   -9.4105    1.0000 </r>
       <r>   -9.3995    1.0000 </r>
       <r>   -9.3991    1.0000 </r>
       <r>   -9.3370    1.0000 </r>
       <r>   -9.3363    1.0000 </r>
       <r>   -9.0558    1.0000 </r>
       <r>   -9.0545    1.0000 </r>
       <r>   -8.9978    1.0000 </r>
       <r>   -8.9978    1.0000 </r>
       <r>   -8.9940    1.0000 </r>
       <r>   -8.9940    1.0000 </r>
       <r>   -8.9690    1.0000 </r>
       <r>   -8.9630    1.0000 </r>
       <r>   -8.9618    1.0000 </r>
       <r>   -8.9572    1.0000 </r>
       <r>   -8.9554    1.0000 </r>
       <r>   -8.9534    1.0000 </r>
       <r>   -8.9518    1.0000 </r>
       <r>   -8.9501    1.0000 </r>
       <r>   -8.9348    1.0000 </r>
       <r>   -8.9348    1.0000 </r>
       <r>   -8.9345    1.0000 </r>
       <r>   -8.9345    1.0000 </r>
       <r>   -8.8997    1.0000 </r>
       <r>   -8.8983    1.0000 </r>
       <r>   -6.4586    1.0000 </r>
       <r>   -5.6874    1.0000 </r>
       <r>   -5.4919    1.0000 </r>
       <r>   -5.4919    1.0000 </r>
       <r>   -5.3292    1.0000 </r>
       <r>   -5.2892    1.0000 </r>
       <r>   -4.9586    1.0000 </r>
       <r>   -4.9586    1.0000 </r>
       <r>   -0.7831    1.0000 </r>
       <r>   -0.6472    1.0000 </r>
       <r>   -0.2778    1.0000 </r>
       <r>   -0.2160    1.0000 </r>
       <r>    0.1495    1.0000 </r>
       <r>    1.2389    1.0000 </r>
       <r>    1.5262    1.0000 </r>
       <r>    1.6422    1.0000 </r>
       <r>    1.6422    1.0000 </r>
       <r>    1.8100    1.0000 </r>
       <r>    1.8100    1.0000 </r>
       <r>    2.0094    1.0000 </r>
       <r>    2.3586    1.0000 </r>
       <r>    2.4966    1.0000 </r>
       <r>    2.5262    1.0000 </r>
       <r>    2.9440    1.0000 </r>
       <r>    3.0455    1.0000 </r>
       <r>    3.0455    1.0000 </r>
       <r>    3.4523    1.0000 </r>
       <r>    3.4523    1.0000 </r>
       <r>    3.8582    1.0000 </r>
       <r>    3.8582    1.0000 </r>
       <r>    3.9767    1.0000 </r>
       <r>    3.9767    1.0000 </r>
       <r>    4.3982    1.0000 </r>
       <r>    4.4739    1.0000 </r>
       <r>    4.5161    1.0000 </r>
       <r>    5.5608    0.1592 </r>
       <r>    5.5974    0.0211 </r>
       <r>    6.5516    0.0000 </r>
       <r>    6.7739    0.0000 </r>
       <r>    7.4041    0.0000 </r>
       <r>    7.4041    0.0000 </r>
       <r>    7.4603    0.0000 </r>
       <r>    7.4603    0.0000 </r>
       <r>    7.5243    0.0000 </r>
       <r>    7.6933    0.0000 </r>
       <r>    8.0000    0.0000 </r>
       <r>    8.0074    0.0000 </r>
       <r>    8.5164    0.0000 </r>
       <r>    8.5164    0.0000 </r>
       <r>    8.5978    0.0000 </r>
       <r>    8.5978    0.0000 </r>
       <r>    9.2218    0.0000 </r>
       <r>    9.2218    0.0000 </r>
       <r>    9.5356    0.0000 </r>
       <r>    9.9967    0.0000 </r>
       <r>    9.9967    0.0000 </r>
       <r>   10.0157    0.0000 </r>
       <r>   10.0522    0.0000 </r>
       <r>   10.0522    0.0000 </r>
       <r>   10.2042    0.0000 </r>
       <r>   10.2042    0.0000 </r>
       <r>   10.7127    0.0000 </r>
       <r>   10.9012    0.0000 </r>
       <r>   11.0967    0.0000 </r>
       <r>   11.2303    0.0000 </r>
       <r>   11.3903    0.0000 </r>
       <r>   11.4058    0.0000 </r>
       <r>   11.5479    0.0000 </r>
       <r>   11.7026    0.0000 </r>
       <r>   12.1234    0.0000 </r>
       <r>   12.1292    0.0000 </r>
       <r>   12.3159    0.0000 </r>
      </set>
      <set comment="kpoint 2">
       <r>   -9.5770    1.0000 </r>
       <r>   -9.5770    1.0000 </r>
       <r>   -9.5732    1.0000 </r>
       <r>   -9.5732    1.0000 </r>
       <r>   -9.5247    1.0000 </r>
       <r>   -9.5246    1.0000 </r>
       <r>   -9.5094    1.0000 </r>
       <r>   -9.4966    1.0000 </r>
       <r>   -9.4498    1.0000 </r>
       <r>   -9.4459    1.0000 </r>
       <r>   -9.4308    1.0000 </r>
       <r>   -9.4308    1.0000 </r>
       <r>   -9.4304    1.0000 </r>
       <r>   -9.4304    1.0000 </r>
       <r>   -9.4107    1.0000 </r>
       <r>   -9.4105    1.0000 </r>
       <r>   -9.3995    1.0000 </r>
       <r>   -9.3991    1.0000 </r>
       <r>   -9.3370    1.0000 </r>
       <r>   -9.3363    1.0000 </r>
       <r>   -9.0558    1.0000 </r>
       <r>   -9.0545    1.0000 </r>
       <r>   -8.9978    1.0000 </r>
       <r>   -8.9978    1.0000 </r>
       <r>   -8.9940    1.0000 </r>
       <r>   -8.9940    1.0000 </r>
       <r>   -8.9690    1.0000 </r>
       <r>   -8.9630    1.0000 </r>
       <r>   -8.9619    1.0000 </r>
       <r>   -8.9572    1.0000 </r>
       <r>   -8.9554    1.0000 </r>
       <r>   -8.9534    1.0000 </r>
       <r>   -8.9518    1.0000 </r>
       <r>   -8.9501    1.0000 </r>
       <r>   -8.9348    1.0000 </r>
       <r>   -8.9348    1.0000 </r>
       <r>   -8.9345    1.0000 </r>
       <r>   -8.9345    1.0000 </r>
       <r>   -8.8997    1.0000 </r>
       <r>   -8.8983    1.0000 </r>
       <r>   -6.4573    1.0000 </r>
       <r>   -5.6953    1.0000 </r>
       <r>   -5.4914    1.0000 </r>
       <r>   -5.4847    1.0000 </r>
       <r>   -5.3283    1.0000 </r>
       <r>   -5.2898    1.0000 </r>
       <r>   -4.9596    1.0000 </r>
       <r>   -4.9593    1.0000 </r>
       <r>   -0.7813    1.0000 </r>
       <r>   -0.6443    1.0000 </r>
       <r>   -0.2769    1.0000 </r>
       <r>   -0.2180    1.0000 </r>
       <r>    0.1459    1.0000 </r>
       <r>    1.2405    1.0000 </r>
       <r>    1.5149    1.0000 </r>
       <r>    1.6311    1.0000 </r>
       <r>    1.6442    1.0000 </r>
       <r>    1.8129    1.0000 </r>
       <r>    1.8201    1.0000 </r>
       <r>    2.0291    1.0000 </r>
       <r>    2.3642    1.0000 </r>
       <r>    2.4866    1.0000 </r>
       <r>    2.5105    1.0000 </r>
       <r>    2.9308    1.0000 </r>
       <r>    3.0491    1.0000 </r>
       <r>    3.0612    1.0000 </r>
       <r>    3.4620    1.0000 </r>
       <r>    3.4652    1.0000 </r>
       <r>    3.8462    1.0000 </r>
       <r>    3.8547    1.0000 </r>
       <r>    3.9723    1.0000 </r>
       <r>    3.9766    1.0000 </r>
       <r>    4.4062    1.0000 </r>
       <r>    4.4680    1.0000 </r>
       <r>    4.5151    1.0000 </r>
       <r>    5.5499    0.2456 </r>
       <r>    5.6043    0.0129 </r>
       <r>    6.5375    0.0000 </r>
       <r>    6.7669    0.0000 </r>
       <r>    7.4031    0.0000 </r>
       <r>    7.4073    0.0000 </r>
       <r>    7.4639    0.0000 </r>
       <r>    7.4731    0.0000 </r>
       <r>    7.5161    0.0000 </r>
       <r>    7.6887    0.0000 </r>
       <r>    7.9976    0.0000 </r>
       <r>    8.0166    0.0000 </r>
       <r>    8.5126    0.0000 </r>
       <r>    8.5269    0.0000 </r>
       <r>    8.5963    0.0000 </r>
       <r>    8.6151    0.0000 </r>
       <r>    9.2148    0.0000 </r>
       <r>    9.2178    0.0000 </r>
       <r>    9.5303    0.0000 </r>
       <r>    9.9692    0.0000 </r>
       <r>    9.9837    0.0000 </r>
       <r>    9.9954    0.0000 </r>
       <r>   10.0475    0.0000 </r>
       <r>   10.0581    0.0000 </r>
       <r>   10.1971    0.0000 </r>
       <r>   10.2535    0.0000 </r>
       <r>   10.7140    0.0000 </r>
       <r>   10.9046    0.0000 </r>
       <r>   11.1027    0.0000 </r>
       <r>   11.2421    0.0000 </r>
       <r>   11.3872    0.0000 </r>
       <r>   11.4065    0.0000 </r>
       <r>   11.5645    0.0000 </r>
       <r>   11.7116    0.0000 </r>
       <r>   12.1278    0.0000 </r>
       <r>   12.1459    0.0000 </r>
       <r>   12.2761    0.0000 </r>
      </set>
      <set comment="kpoint 3">
       <r>   -9.5770    1.0000 </r>
       <r>   -9.5770    1.0000 </r>
       <r>   -9.5732    1.0000 </r>
       <r>   -9.5732    1.0000 </r>
       <r>   -9.5246    1.0000 </r>
       <r>   -9.5246    1.0000 </r>
       <r>   -9.5093    1.0000 </r>
       <r>   -9.4967    1.0000 </r>
       <r>   -9.4497    1.0000 </r>
       <r>   -9.4459    1.0000 </r>
       <r>   -9.4308    1.0000 </r>
       <r>   -9.4308    1.0000 </r>
       <r>   -9.4304    1.0000 </r>
       <r>   -9.4304    1.0000 </r>
       <r>   -9.4106    1.0000 </r>
       <r>   -9.4105    1.0000 </r>
       <r>   -9.3995    1.0000 </r>
       <r>   -9.3991    1.0000 </r>
       <r>   -9.3370    1.0000 </r>
       <r>   -9.3363    1.0000 </r>
       <r>   -9.0558    1.0000 </r>
       <r>   -9.0545    1.0000 </r>
       <r>   -8.9978    1.0000 </r>
       <r>   -8.9978    1.0000 </r>
       <r>   -8.9941    1.0000 </r>
       <r>   -8.9941    1.0000 </r>
       <r>   -8.9689    1.0000 </r>
       <r>   -8.9629    1.0000 </r>
       <r>   -8.9619    1.0000 </r>
       <r>   -8.9572    1.0000 </r>
       <r>   -8.9554    1.0000 </r>
       <r>   -8.9534    1.0000 </r>
       <r>   -8.9518    1.0000 </r>
       <r>   -8.9501    1.0000 </r>
       <r>   -8.9348    1.0000 </r>
       <r>   -8.9348    1.0000 </r>
       <r>   -8.9345    1.0000 </r>
       <r>   -8.9345    1.0000 </r>
       <r>   -8.8997    1.0000 </r>
       <r>   -8.8983    1.0000 </r>
       <r>   -6.4535    1.0000 </r>
       <r>   -5.7164    1.0000 </r>
       <r>   -5.4900    1.0000 </r>
       <r>   -5.4660    1.0000 </r>
       <r>   -5.3253    1.0000 </r>
       <r>   -5.2916    1.0000 </r>
       <r>   -4.9629    1.0000 </r>
       <r>   -4.9614    1.0000 </r>
       <r>   -0.7758    1.0000 </r>
       <r>   -0.6356    1.0000 </r>
       <r>   -0.2739    1.0000 </r>
       <r>   -0.2238    1.0000 </r>
       <r>    0.1350    1.0000 </r>
       <r>    1.2454    1.0000 </r>
       <r>    1.4833    1.0000 </r>
       <r>    1.6040    1.0000 </r>
       <r>    1.6500    1.0000 </r>
       <r>    1.8218    1.0000 </r>
       <r>    1.8479    1.0000 </r>
       <r>    2.0821    1.0000 </r>
       <r>    2.3807    1.0000 </r>
       <r>    2.4578    1.0000 </r>
       <r>    2.4683    1.0000 </r>
       <r>    2.8948    1.0000 </r>
       <r>    3.0599    1.0000 </r>
       <r>    3.1033    1.0000 </r>
       <r>    3.4895    1.0000 </r>
       <r>    3.5005    1.0000 </r>
       <r>    3.8110    1.0000 </r>
       <r>    3.8442    1.0000 </r>
       <r>    3.9605    1.0000 </r>
       <r>    3.9763    1.0000 </r>
       <r>    4.4283    1.0000 </r>
       <r>    4.4502    1.0000 </r>
       <r>    4.5122    1.0000 </r>
       <r>    5.5179    0.5853 </r>
       <r>    5.6246    0.0025 </r>
       <r>    6.4977    0.0000 </r>
       <r>    6.7470    0.0000 </r>
       <r>    7.4025    0.0000 </r>
       <r>    7.4128    0.0000 </r>
       <r>    7.4746    0.0000 </r>
       <r>    7.4917    0.0000 </r>
       <r>    7.5091    0.0000 </r>
       <r>    7.6806    0.0000 </r>
       <r>    7.9686    0.0000 </r>
       <r>    8.0627    0.0000 </r>
       <r>    8.5012    0.0000 </r>
       <r>    8.5574    0.0000 </r>
       <r>    8.5931    0.0000 </r>
       <r>    8.6640    0.0000 </r>
       <r>    9.1944    0.0000 </r>
       <r>    9.2056    0.0000 </r>
       <r>    9.5153    0.0000 </r>
       <r>    9.8855    0.0000 </r>
       <r>    9.9465    0.0000 </r>
       <r>    9.9914    0.0000 </r>
       <r>   10.0343    0.0000 </r>
       <r>   10.0751    0.0000 </r>
       <r>   10.1769    0.0000 </r>
       <r>   10.3450    0.0000 </r>
       <r>   10.7181    0.0000 </r>
       <r>   10.9136    0.0000 </r>
       <r>   11.1205    0.0000 </r>
       <r>   11.2768    0.0000 </r>
       <r>   11.3781    0.0000 </r>
       <r>   11.4082    0.0000 </r>
       <r>   11.6112    0.0000 </r>
       <r>   11.7319    0.0000 </r>
       <r>   12.1310    0.0000 </r>
       <r>   12.1689    0.0000 </r>
       <r>   12.2571    0.0000 </r>
      </set>
      <set comment="kpoint 4">
       <r>   -9.5770    1.0000 </r>
       <r>   -9.5769    1.0000 </r>
       <r>   -9.5733    1.0000 </r>
       <r>   -9.5732    1.0000 </r>
       <r>   -9.5246    1.0000 </r>
       <r>   -9.5246    1.0000 </r>
       <r>   -9.5091    1.0000 </r>
       <r>   -9.4969    1.0000 </r>
       <r>   -9.4497    1.0000 </r>
       <r>   -9.4459    1.0000 </r>
       <r>   -9.4308    1.0000 </r>
       <r>   -9.4308    1.0000 </r>
       <r>   -9.4304    1.0000 </r>
       <r>   -9.4304    1.0000 </r>
       <r>   -9.4106    1.0000 </r>
       <r>   -9.4104    1.0000 </r>
       <r>   -9.3994    1.0000 </r>
       <r>   -9.3991    1.0000 </r>
       <r>   -9.3370    1.0000 </r>
       <r>   -9.3363    1.0000 </r>
       <r>   -9.0558    1.0000 </r>
       <r>   -9.0546    1.0000 </r>
       <r>   -8.9978    1.0000 </r>
       <r>   -8.9977    1.0000 </r>
       <r>   -8.9942    1.0000 </r>
       <r>   -8.9941    1.0000 </r>
       <r>   -8.9689    1.0000 </r>
       <r>   -8.9629    1.0000 </r>
       <r>   -8.9620    1.0000 </r>
       <r>   -8.9573    1.0000 </r>
       <r>   -8.9554    1.0000 </r>
       <r>   -8.9535    1.0000 </r>
       <r>   -8.9518    1.0000 </r>
       <r>   -8.9502    1.0000 </r>
       <r>   -8.9348    1.0000 </r>
       <r>   -8.9348    1.0000 </r>
       <r>   -8.9345    1.0000 </r>
       <r>   -8.9345    1.0000 </r>
       <r>   -8.8997    1.0000 </r>
       <r>   -8.8983    1.0000 </r>
       <r>   -6.4472    1.0000 </r>
       <r>   -5.7457    1.0000 </r>
       <r>   -5.4876    1.0000 </r>
       <r>   -5.4405    1.0000 </r>
       <r>   -5.3205    1.0000 </r>
       <r>   -5.2946    1.0000 </r>
       <r>   -4.9683    1.0000 </r>
       <r>   -4.9650    1.0000 </r>
       <r>   -0.7668    1.0000 </r>
       <r>   -0.6216    1.0000 </r>
       <r>   -0.2684    1.0000 </r>
       <r>   -0.2332    1.0000 </r>
       <r>    0.1171    1.0000 </r>
       <r>    1.2536    1.0000 </r>
       <r>    1.4359    1.0000 </r>
       <r>    1.5716    1.0000 </r>
       <r>    1.6598    1.0000 </r>
       <r>    1.8368    1.0000 </r>
       <r>    1.8894    1.0000 </r>
       <r>    2.1571    1.0000 </r>
       <r>    2.4079    1.0000 </r>
       <r>    2.4092    1.0000 </r>
       <r>    2.4139    1.0000 </r>
       <r>    2.8432    1.0000 </r>
       <r>    3.0775    1.0000 </r>
       <r>    3.1621    1.0000 </r>
       <r>    3.5306    1.0000 </r>
       <r>    3.5509    1.0000 </r>
       <r>    3.7555    1.0000 </r>
       <r>    3.8268    1.0000 </r>
       <r>    3.9447    1.0000 </r>
       <r>    3.9757    1.0000 </r>
       <r>    4.4198    1.0000 </r>
       <r>    4.4600    1.0000 </r>
       <r>    4.5073    1.0000 </r>
       <r>    5.4673    0.9501 </r>
       <r>    5.6568    0.0001 </r>
       <r>    6.4392    0.0000 </r>
       <r>    6.7174    0.0000 </r>
       <r>    7.4084    0.0000 </r>
       <r>    7.4101    0.0000 </r>
       <r>    7.4516    0.0000 </r>
       <r>    7.4925    0.0000 </r>
       <r>    7.5623    0.0000 </r>
       <r>    7.6837    0.0000 </r>
       <r>    7.9216    0.0000 </r>
       <r>    8.1280    0.0000 </r>
       <r>    8.4818    0.0000 </r>
       <r>    8.5926    0.0000 </r>
       <r>    8.6046    0.0000 </r>
       <r>    8.7374    0.0000 </r>
       <r>    9.1620    0.0000 </r>
       <r>    9.1850    0.0000 </r>
       <r>    9.4927    0.0000 </r>
       <r>    9.7995    0.0000 </r>
       <r>    9.8893    0.0000 </r>
       <r>    9.9851    0.0000 </r>
       <r>   10.0144    0.0000 </r>
       <r>   10.1012    0.0000 </r>
       <r>   10.1460    0.0000 </r>
       <r>   10.4407    0.0000 </r>
       <r>   10.7254    0.0000 </r>
       <r>   10.9256    0.0000 </r>
       <r>   11.1496    0.0000 </r>
       <r>   11.3332    0.0000 </r>
       <r>   11.3607    0.0000 </r>
       <r>   11.4105    0.0000 </r>
       <r>   11.6870    0.0000 </r>
       <r>   11.7644    0.0000 </r>
       <r>   12.0995    0.0000 </r>
       <r>   12.1496    0.0000 </r>
       <r>   12.1785    0.0000 </r>
      </set>
      <set comment="kpoint 5">
       <r>   -9.5769    1.0000 </r>
       <r>   -9.5768    1.0000 </r>
       <r>   -9.5733    1.0000 </r>
       <r>   -9.5733    1.0000 </r>
       <r>   -9.5246    1.0000 </r>
       <r>   -9.5246    1.0000 </r>
       <r>   -9.5088    1.0000 </r>
       <r>   -9.4971    1.0000 </r>
       <r>   -9.4496    1.0000 </r>
       <r>   -9.4460    1.0000 </r>
       <r>   -9.4308    1.0000 </r>
       <r>   -9.4308    1.0000 </r>
       <r>   -9.4304    1.0000 </r>
       <r>   -9.4304    1.0000 </r>
       <r>   -9.4106    1.0000 </r>
       <r>   -9.4104    1.0000 </r>
       <r>   -9.3994    1.0000 </r>
       <r>   -9.3991    1.0000 </r>
       <r>   -9.3369    1.0000 </r>
       <r>   -9.3363    1.0000 </r>
       <r>   -9.0557    1.0000 </r>
       <r>   -9.0546    1.0000 </r>
       <r>   -8.9978    1.0000 </r>
       <r>   -8.9977    1.0000 </r>
       <r>   -8.9943    1.0000 </r>
       <r>   -8.9942    1.0000 </r>
       <r>   -8.9688    1.0000 </r>
       <r>   -8.9628    1.0000 </r>
       <r>   -8.9622    1.0000 </r>
       <r>   -8.9574    1.0000 </r>
       <r>   -8.9553    1.0000 </r>
       <r>   -8.9535    1.0000 </r>
       <r>   -8.9518    1.0000 </r>
       <r>   -8.9502    1.0000 </r>
       <r>   -8.9348    1.0000 </r>
       <r>   -8.9348    1.0000 </r>
       <r>   -8.9345    1.0000 </r>
       <r>   -8.9345    1.0000 </r>
       <r>   -8.8996    1.0000 </r>
       <r>   -8.8984    1.0000 </r>
       <r>   -6.4383    1.0000 </r>
       <r>   -5.7795    1.0000 </r>
       <r>   -5.4842    1.0000 </r>
       <r>   -5.4119    1.0000 </r>
       <r>   -5.3138    1.0000 </r>
       <r>   -5.2988    1.0000 </r>
       <r>   -4.9757    1.0000 </r>
       <r>   -4.9701    1.0000 </r>
       <r>   -0.7542    1.0000 </r>
       <r>   -0.6033    1.0000 </r>
       <r>   -0.2596    1.0000 </r>
       <r>   -0.2455    1.0000 </r>
       <r>    0.0927    1.0000 </r>
       <r>    1.2649    1.0000 </r>
       <r>    1.3759    1.0000 </r>
       <r>    1.5413    1.0000 </r>
       <r>    1.6735    1.0000 </r>
       <r>    1.8584    1.0000 </r>
       <r>    1.9417    1.0000 </r>
       <r>    2.2465    1.0000 </r>
       <r>    2.3409    1.0000 </r>
       <r>    2.3590    1.0000 </r>
       <r>    2.4452    1.0000 </r>
       <r>    2.7823    1.0000 </r>
       <r>    3.1013    1.0000 </r>
       <r>    3.2297    1.0000 </r>
       <r>    3.5801    1.0000 </r>
       <r>    3.6101    1.0000 </r>
       <r>    3.6833    1.0000 </r>
       <r>    3.8028    1.0000 </r>
       <r>    3.9279    1.0000 </r>
       <r>    3.9747    1.0000 </r>
       <r>    4.3765    1.0000 </r>
       <r>    4.4960    1.0000 </r>
       <r>    4.5002    1.0000 </r>
       <r>    5.4016    0.9998 </r>
       <r>    5.6991    0.0000 </r>
       <r>    6.3697    0.0000 </r>
       <r>    6.6827    0.0000 </r>
       <r>    7.3891    0.0000 </r>
       <r>    7.3965    0.0000 </r>
       <r>    7.4261    0.0000 </r>
       <r>    7.5176    0.0000 </r>
       <r>    7.6268    0.0000 </r>
       <r>    7.7114    0.0000 </r>
       <r>    7.8580    0.0000 </r>
       <r>    8.1980    0.0000 </r>
       <r>    8.4548    0.0000 </r>
       <r>    8.6038    0.0000 </r>
       <r>    8.6636    0.0000 </r>
       <r>    8.8272    0.0000 </r>
       <r>    9.1195    0.0000 </r>
       <r>    9.1556    0.0000 </r>
       <r>    9.4653    0.0000 </r>
       <r>    9.7175    0.0000 </r>
       <r>    9.8179    0.0000 </r>
       <r>    9.9764    0.0000 </r>
       <r>    9.9903    0.0000 </r>
       <r>   10.1075    0.0000 </r>
       <r>   10.1342    0.0000 </r>
       <r>   10.5291    0.0000 </r>
       <r>   10.7363    0.0000 </r>
       <r>   10.9372    0.0000 </r>
       <r>   11.1895    0.0000 </r>
       <r>   11.3345    0.0000 </r>
       <r>   11.4096    0.0000 </r>
       <r>   11.4133    0.0000 </r>
       <r>   11.7886    0.0000 </r>
       <r>   11.8075    0.0000 </r>
       <r>   11.9859    0.0000 </r>
       <r>   12.1573    0.0000 </r>
       <r>   12.2008    0.0000 </r>
      </set>
      <set comment="kpoint 6">
       <r>   -9.5768    1.0000 </r>
       <r>   -9.5767    1.0000 </r>
       <r>   -9.5734    1.0000 </r>
       <r>   -9.5733    1.0000 </r>
       <r>   -9.5246    1.0000 </r>
       <r>   -9.5246    1.0000 </r>
       <r>   -9.5085    1.0000 </r>
       <r>   -9.4974    1.0000 </r>
       <r>   -9.4495    1.0000 </r>
       <r>   -9.4461    1.0000 </r>
       <r>   -9.4308    1.0000 </r>
       <r>   -9.4308    1.0000 </r>
       <r>   -9.4304    1.0000 </r>
       <r>   -9.4304    1.0000 </r>
       <r>   -9.4105    1.0000 </r>
       <r>   -9.4104    1.0000 </r>
       <r>   -9.3994    1.0000 </r>
       <r>   -9.3991    1.0000 </r>
       <r>   -9.3369    1.0000 </r>
       <r>   -9.3363    1.0000 </r>
       <r>   -9.0557    1.0000 </r>
       <r>   -9.0546    1.0000 </r>
       <r>   -8.9977    1.0000 </r>
       <r>   -8.9976    1.0000 </r>
       <r>   -8.9944    1.0000 </r>
       <r>   -8.9943    1.0000 </r>
       <r>   -8.9686    1.0000 </r>
       <r>   -8.9626    1.0000 </r>
       <r>   -8.9624    1.0000 </r>
       <r>   -8.9576    1.0000 </r>
       <r>   -8.9553    1.0000 </r>
       <r>   -8.9536    1.0000 </r>
       <r>   -8.9518    1.0000 </r>
       <r>   -8.9503    1.0000 </r>
       <r>   -8.9348    1.0000 </r>
       <r>   -8.9348    1.0000 </r>
       <r>   -8.9345    1.0000 </r>
       <r>   -8.9345    1.0000 </r>
       <r>   -8.8996    1.0000 </r>
       <r>   -8.8984    1.0000 </r>
       <r>   -6.4270    1.0000 </r>
       <r>   -5.8160    1.0000 </r>
       <r>   -5.4799    1.0000 </r>
       <r>   -5.3820    1.0000 </r>
       <r>   -5.3053    1.0000 </r>
       <r>   -5.3040    1.0000 </r>
       <r>   -4.9850    1.0000 </r>
       <r>   -4.9766    1.0000 </r>
       <r>   -0.7381    1.0000 </r>
       <r>   -0.5819    1.0000 </r>
       <r>   -0.2604    1.0000 </r>
       <r>   -0.2460    1.0000 </r>
       <r>    0.0621    1.0000 </r>
       <r>    1.2794    1.0000 </r>
       <r>    1.3056    1.0000 </r>
       <r>    1.5167    1.0000 </r>
       <r>    1.6910    1.0000 </r>
       <r>    1.8867    1.0000 </r>
       <r>    2.0033    1.0000 </r>
       <r>    2.2680    1.0000 </r>
       <r>    2.2969    1.0000 </r>
       <r>    2.3458    1.0000 </r>
       <r>    2.4922    1.0000 </r>
       <r>    2.7162    1.0000 </r>
       <r>    3.1302    1.0000 </r>
       <r>    3.3011    1.0000 </r>
       <r>    3.5983    1.0000 </r>
       <r>    3.6324    1.0000 </r>
       <r>    3.6737    1.0000 </r>
       <r>    3.7729    1.0000 </r>
       <r>    3.9124    1.0000 </r>
       <r>    3.9731    1.0000 </r>
       <r>    4.3204    1.0000 </r>
       <r>    4.4910    1.0000 </r>
       <r>    4.5314    1.0000 </r>
       <r>    5.3244    1.0000 </r>
       <r>    5.7497    0.0000 </r>
       <r>    6.2961    0.0000 </r>
       <r>    6.6477    0.0000 </r>
       <r>    7.3276    0.0000 </r>
       <r>    7.3508    0.0000 </r>
       <r>    7.4594    0.0000 </r>
       <r>    7.5498    0.0000 </r>
       <r>    7.6979    0.0000 </r>
       <r>    7.7647    0.0000 </r>
       <r>    7.7796    0.0000 </r>
       <r>    8.2542    0.0000 </r>
       <r>    8.4212    0.0000 </r>
       <r>    8.6412    0.0000 </r>
       <r>    8.7293    0.0000 </r>
       <r>    8.9263    0.0000 </r>
       <r>    9.0693    0.0000 </r>
       <r>    9.1167    0.0000 </r>
       <r>    9.4354    0.0000 </r>
       <r>    9.6394    0.0000 </r>
       <r>    9.7385    0.0000 </r>
       <r>    9.9644    0.0000 </r>
       <r>    9.9659    0.0000 </r>
       <r>   10.0642    0.0000 </r>
       <r>   10.1724    0.0000 </r>
       <r>   10.6027    0.0000 </r>
       <r>   10.7516    0.0000 </r>
       <r>   10.9460    0.0000 </r>
       <r>   11.2391    0.0000 </r>
       <r>   11.2992    0.0000 </r>
       <r>   11.4161    0.0000 </r>
       <r>   11.5033    0.0000 </r>
       <r>   11.8548    0.0000 </r>
       <r>   11.8765    0.0000 </r>
       <r>   11.9129    0.0000 </r>
       <r>   12.1722    0.0000 </r>
       <r>   12.2432    0.0000 </r>
      </set>
      <set comment="kpoint 7">
       <r>   -9.5767    1.0000 </r>
       <r>   -9.5766    1.0000 </r>
       <r>   -9.5736    1.0000 </r>
       <r>   -9.5734    1.0000 </r>
       <r>   -9.5246    1.0000 </r>
       <r>   -9.5246    1.0000 </r>
       <r>   -9.5081    1.0000 </r>
       <r>   -9.4978    1.0000 </r>
       <r>   -9.4494    1.0000 </r>
       <r>   -9.4462    1.0000 </r>
       <r>   -9.4308    1.0000 </r>
       <r>   -9.4308    1.0000 </r>
       <r>   -9.4304    1.0000 </r>
       <r>   -9.4304    1.0000 </r>
       <r>   -9.4105    1.0000 </r>
       <r>   -9.4103    1.0000 </r>
       <r>   -9.3993    1.0000 </r>
       <r>   -9.3990    1.0000 </r>
       <r>   -9.3369    1.0000 </r>
       <r>   -9.3363    1.0000 </r>
       <r>   -9.0557    1.0000 </r>
       <r>   -9.0547    1.0000 </r>
       <r>   -8.9977    1.0000 </r>
       <r>   -8.9975    1.0000 </r>
       <r>   -8.9946    1.0000 </r>
       <r>   -8.9944    1.0000 </r>
       <r>   -8.9684    1.0000 </r>
       <r>   -8.9626    1.0000 </r>
       <r>   -8.9625    1.0000 </r>
       <r>   -8.9577    1.0000 </r>
       <r>   -8.9553    1.0000 </r>
       <r>   -8.9537    1.0000 </r>
       <r>   -8.9518    1.0000 </r>
       <r>   -8.9504    1.0000 </r>
       <r>   -8.9348    1.0000 </r>
       <r>   -8.9348    1.0000 </r>
       <r>   -8.9345    1.0000 </r>
       <r>   -8.9345    1.0000 </r>
       <r>   -8.8996    1.0000 </r>
       <r>   -8.8985    1.0000 </r>
       <r>   -6.4132    1.0000 </r>
       <r>   -5.8540    1.0000 </r>
       <r>   -5.4747    1.0000 </r>
       <r>   -5.3519    1.0000 </r>
       <r>   -5.3103    1.0000 </r>
       <r>   -5.2952    1.0000 </r>
       <r>   -4.9961    1.0000 </r>
       <r>   -4.9845    1.0000 </r>
       <r>   -0.7185    1.0000 </r>
       <r>   -0.5590    1.0000 </r>
       <r>   -0.2770    1.0000 </r>
       <r>   -0.2262    1.0000 </r>
       <r>    0.0262    1.0000 </r>
       <r>    1.2266    1.0000 </r>
       <r>    1.2970    1.0000 </r>
       <r>    1.4994    1.0000 </r>
       <r>    1.7124    1.0000 </r>
       <r>    1.9222    1.0000 </r>
       <r>    2.0731    1.0000 </r>
       <r>    2.1935    1.0000 </r>
       <r>    2.2305    1.0000 </r>
       <r>    2.4523    1.0000 </r>
       <r>    2.5480    1.0000 </r>
       <r>    2.6475    1.0000 </r>
       <r>    3.1628    1.0000 </r>
       <r>    3.3727    1.0000 </r>
       <r>    3.5038    1.0000 </r>
       <r>    3.6826    1.0000 </r>
       <r>    3.7379    1.0000 </r>
       <r>    3.7392    1.0000 </r>
       <r>    3.8992    1.0000 </r>
       <r>    3.9707    1.0000 </r>
       <r>    4.2524    1.0000 </r>
       <r>    4.4795    1.0000 </r>
       <r>    4.5626    1.0000 </r>
       <r>    5.2397    1.0000 </r>
       <r>    5.8074    0.0000 </r>
       <r>    6.2246    0.0000 </r>
       <r>    6.6170    0.0000 </r>
       <r>    7.2463    0.0000 </r>
       <r>    7.3021    0.0000 </r>
       <r>    7.5094    0.0000 </r>
       <r>    7.5892    0.0000 </r>
       <r>    7.6882    0.0000 </r>
       <r>    7.7722    0.0000 </r>
       <r>    7.8371    0.0000 </r>
       <r>    8.2833    0.0000 </r>
       <r>    8.3831    0.0000 </r>
       <r>    8.7156    0.0000 </r>
       <r>    8.7959    0.0000 </r>
       <r>    9.0133    0.0000 </r>
       <r>    9.0287    0.0000 </r>
       <r>    9.0671    0.0000 </r>
       <r>    9.4050    0.0000 </r>
       <r>    9.5630    0.0000 </r>
       <r>    9.6573    0.0000 </r>
       <r>    9.9387    0.0000 </r>
       <r>    9.9537    0.0000 </r>
       <r>   10.0185    0.0000 </r>
       <r>   10.2143    0.0000 </r>
       <r>   10.6543    0.0000 </r>
       <r>   10.7720    0.0000 </r>
       <r>   10.9511    0.0000 </r>
       <r>   11.2557    0.0000 </r>
       <r>   11.2973    0.0000 </r>
       <r>   11.4188    0.0000 </r>
       <r>   11.6114    0.0000 </r>
       <r>   11.7862    0.0000 </r>
       <r>   11.9046    0.0000 </r>
       <r>   12.0537    0.0000 </r>
       <r>   12.1963    0.0000 </r>
       <r>   12.2965    0.0000 </r>
      </set>
      <set comment="kpoint 8">
       <r>   -9.5766    1.0000 </r>
       <r>   -9.5764    1.0000 </r>
       <r>   -9.5737    1.0000 </r>
       <r>   -9.5735    1.0000 </r>
       <r>   -9.5246    1.0000 </r>
       <r>   -9.5246    1.0000 </r>
       <r>   -9.5077    1.0000 </r>
       <r>   -9.4982    1.0000 </r>
       <r>   -9.4492    1.0000 </r>
       <r>   -9.4463    1.0000 </r>
       <r>   -9.4308    1.0000 </r>
       <r>   -9.4307    1.0000 </r>
       <r>   -9.4304    1.0000 </r>
       <r>   -9.4304    1.0000 </r>
       <r>   -9.4104    1.0000 </r>
       <r>   -9.4103    1.0000 </r>
       <r>   -9.3993    1.0000 </r>
       <r>   -9.3990    1.0000 </r>
       <r>   -9.3368    1.0000 </r>
       <r>   -9.3363    1.0000 </r>
       <r>   -9.0556    1.0000 </r>
       <r>   -9.0547    1.0000 </r>
       <r>   -8.9976    1.0000 </r>
       <r>   -8.9974    1.0000 </r>
       <r>   -8.9948    1.0000 </r>
       <r>   -8.9946    1.0000 </r>
       <r>   -8.9682    1.0000 </r>
       <r>   -8.9629    1.0000 </r>
       <r>   -8.9623    1.0000 </r>
       <r>   -8.9579    1.0000 </r>
       <r>   -8.9552    1.0000 </r>
       <r>   -8.9537    1.0000 </r>
       <r>   -8.9518    1.0000 </r>
       <r>   -8.9505    1.0000 </r>
       <r>   -8.9348    1.0000 </r>
       <r>   -8.9348    1.0000 </r>
       <r>   -8.9346    1.0000 </r>
       <r>   -8.9345    1.0000 </r>
       <r>   -8.8996    1.0000 </r>
       <r>   -8.8985    1.0000 </r>
       <r>   -6.3970    1.0000 </r>
       <r>   -5.8928    1.0000 </r>
       <r>   -5.4686    1.0000 </r>
       <r>   -5.3220    1.0000 </r>
       <r>   -5.3175    1.0000 </r>
       <r>   -5.2834    1.0000 </r>
       <r>   -5.0089    1.0000 </r>
       <r>   -4.9938    1.0000 </r>
       <r>   -0.6954    1.0000 </r>
       <r>   -0.5364    1.0000 </r>
       <r>   -0.2948    1.0000 </r>
       <r>   -0.1984    1.0000 </r>
       <r>   -0.0144    1.0000 </r>
       <r>    1.1402    1.0000 </r>
       <r>    1.3178    1.0000 </r>
       <r>    1.4901    1.0000 </r>
       <r>    1.7375    1.0000 </r>
       <r>    1.9649    1.0000 </r>
       <r>    2.1189    1.0000 </r>
       <r>    2.1504    1.0000 </r>
       <r>    2.1621    1.0000 </r>
       <r>    2.5642    1.0000 </r>
       <r>    2.5779    1.0000 </r>
       <r>    2.6122    1.0000 </r>
       <r>    3.1965    1.0000 </r>
       <r>    3.4000    1.0000 </r>
       <r>    3.4456    1.0000 </r>
       <r>    3.6998    1.0000 </r>
       <r>    3.7258    1.0000 </r>
       <r>    3.8048    1.0000 </r>
       <r>    3.8886    1.0000 </r>
       <r>    3.9672    1.0000 </r>
       <r>    4.1737    1.0000 </r>
       <r>    4.4655    1.0000 </r>
       <r>    4.5865    1.0000 </r>
       <r>    5.1511    1.0000 </r>
       <r>    5.8716    0.0000 </r>
       <r>    6.1607    0.0000 </r>
       <r>    6.5945    0.0000 </r>
       <r>    7.1544    0.0000 </r>
       <r>    7.2484    0.0000 </r>
       <r>    7.5758    0.0000 </r>
       <r>    7.5857    0.0000 </r>
       <r>    7.6358    0.0000 </r>
       <r>    7.8478    0.0000 </r>
       <r>    7.9225    0.0000 </r>
       <r>    8.2884    0.0000 </r>
       <r>    8.3428    0.0000 </r>
       <r>    8.8223    0.0000 </r>
       <r>    8.8576    0.0000 </r>
       <r>    8.9534    0.0000 </r>
       <r>    9.0060    0.0000 </r>
       <r>    9.1295    0.0000 </r>
       <r>    9.3757    0.0000 </r>
       <r>    9.4847    0.0000 </r>
       <r>    9.5796    0.0000 </r>
       <r>    9.9147    0.0000 </r>
       <r>    9.9404    0.0000 </r>
       <r>    9.9722    0.0000 </r>
       <r>   10.2593    0.0000 </r>
       <r>   10.6765    0.0000 </r>
       <r>   10.7980    0.0000 </r>
       <r>   10.9539    0.0000 </r>
       <r>   11.2052    0.0000 </r>
       <r>   11.3628    0.0000 </r>
       <r>   11.4218    0.0000 </r>
       <r>   11.7207    0.0000 </r>
       <r>   11.7303    0.0000 </r>
       <r>   11.9502    0.0000 </r>
       <r>   12.2107    0.0000 </r>
       <r>   12.2275    0.0000 </r>
       <r>   12.3532    0.0000 </r>
      </set>
      <set comment="kpoint 9">
       <r>   -9.5765    1.0000 </r>
       <r>   -9.5762    1.0000 </r>
       <r>   -9.5739    1.0000 </r>
       <r>   -9.5736    1.0000 </r>
       <r>   -9.5246    1.0000 </r>
       <r>   -9.5246    1.0000 </r>
       <r>   -9.5072    1.0000 </r>
       <r>   -9.4986    1.0000 </r>
       <r>   -9.4491    1.0000 </r>
       <r>   -9.4465    1.0000 </r>
       <r>   -9.4307    1.0000 </r>
       <r>   -9.4307    1.0000 </r>
       <r>   -9.4304    1.0000 </r>
       <r>   -9.4304    1.0000 </r>
       <r>   -9.4103    1.0000 </r>
       <r>   -9.4102    1.0000 </r>
       <r>   -9.3992    1.0000 </r>
       <r>   -9.3990    1.0000 </r>
       <r>   -9.3368    1.0000 </r>
       <r>   -9.3363    1.0000 </r>
       <r>   -9.0556    1.0000 </r>
       <r>   -9.0548    1.0000 </r>
       <r>   -8.9976    1.0000 </r>
       <r>   -8.9973    1.0000 </r>
       <r>   -8.9950    1.0000 </r>
       <r>   -8.9947    1.0000 </r>
       <r>   -8.9680    1.0000 </r>
       <r>   -8.9632    1.0000 </r>
       <r>   -8.9621    1.0000 </r>
       <r>   -8.9581    1.0000 </r>
       <r>   -8.9551    1.0000 </r>
       <r>   -8.9538    1.0000 </r>
       <r>   -8.9518    1.0000 </r>
       <r>   -8.9506    1.0000 </r>
       <r>   -8.9348    1.0000 </r>
       <r>   -8.9348    1.0000 </r>
       <r>   -8.9346    1.0000 </r>
       <r>   -8.9345    1.0000 </r>
       <r>   -8.8995    1.0000 </r>
       <r>   -8.8986    1.0000 </r>
       <r>   -6.3785    1.0000 </r>
       <r>   -5.9319    1.0000 </r>
       <r>   -5.4617    1.0000 </r>
       <r>   -5.3255    1.0000 </r>
       <r>   -5.2928    1.0000 </r>
       <r>   -5.2702    1.0000 </r>
       <r>   -5.0232    1.0000 </r>
       <r>   -5.0045    1.0000 </r>
       <r>   -0.6690    1.0000 </r>
       <r>   -0.5156    1.0000 </r>
       <r>   -0.3131    1.0000 </r>
       <r>   -0.1611    1.0000 </r>
       <r>   -0.0585    1.0000 </r>
       <r>    1.0480    1.0000 </r>
       <r>    1.3418    1.0000 </r>
       <r>    1.4888    1.0000 </r>
       <r>    1.7664    1.0000 </r>
       <r>    2.0150    1.0000 </r>
       <r>    2.0455    1.0000 </r>
       <r>    2.0932    1.0000 </r>
       <r>    2.2342    1.0000 </r>
       <r>    2.5083    1.0000 </r>
       <r>    2.6799    1.0000 </r>
       <r>    2.6839    1.0000 </r>
       <r>    3.2270    1.0000 </r>
       <r>    3.2954    1.0000 </r>
       <r>    3.5115    1.0000 </r>
       <r>    3.6621    1.0000 </r>
       <r>    3.7576    1.0000 </r>
       <r>    3.8694    1.0000 </r>
       <r>    3.8801    1.0000 </r>
       <r>    3.9622    1.0000 </r>
       <r>    4.0860    1.0000 </r>
       <r>    4.4489    1.0000 </r>
       <r>    4.6018    1.0000 </r>
       <r>    5.0619    1.0000 </r>
       <r>    5.9418    0.0000 </r>
       <r>    6.1093    0.0000 </r>
       <r>    6.5830    0.0000 </r>
       <r>    7.0538    0.0000 </r>
       <r>    7.1926    0.0000 </r>
       <r>    7.4743    0.0000 </r>
       <r>    7.6567    0.0000 </r>
       <r>    7.6894    0.0000 </r>
       <r>    7.9234    0.0000 </r>
       <r>    8.0169    0.0000 </r>
       <r>    8.2811    0.0000 </r>
       <r>    8.3025    0.0000 </r>
       <r>    8.8908    0.0000 </r>
       <r>    8.9091    0.0000 </r>
       <r>    8.9331    0.0000 </r>
       <r>    8.9495    0.0000 </r>
       <r>    9.2248    0.0000 </r>
       <r>    9.3485    0.0000 </r>
       <r>    9.4014    0.0000 </r>
       <r>    9.5095    0.0000 </r>
       <r>    9.8935    0.0000 </r>
       <r>    9.9263    0.0000 </r>
       <r>    9.9264    0.0000 </r>
       <r>   10.3068    0.0000 </r>
       <r>   10.6643    0.0000 </r>
       <r>   10.8296    0.0000 </r>
       <r>   10.9572    0.0000 </r>
       <r>   11.1493    0.0000 </r>
       <r>   11.4253    0.0000 </r>
       <r>   11.4341    0.0000 </r>
       <r>   11.6874    0.0000 </r>
       <r>   11.8554    0.0000 </r>
       <r>   11.9907    0.0000 </r>
       <r>   12.2653    0.0000 </r>
       <r>   12.3806    0.0000 </r>
       <r>   12.4216    0.0000 </r>
      </set>
      <set comment="kpoint 10">
       <r>   -9.5763    1.0000 </r>
       <r>   -9.5760    1.0000 </r>
       <r>   -9.5740    1.0000 </r>
       <r>   -9.5737    1.0000 </r>
       <r>   -9.5246    1.0000 </r>
       <r>   -9.5246    1.0000 </r>
       <r>   -9.5067    1.0000 </r>
       <r>   -9.4991    1.0000 </r>
       <r>   -9.4489    1.0000 </r>
       <r>   -9.4466    1.0000 </r>
       <r>   -9.4307    1.0000 </r>
       <r>   -9.4307    1.0000 </r>
       <r>   -9.4305    1.0000 </r>
       <r>   -9.4304    1.0000 </r>
       <r>   -9.4103    1.0000 </r>
       <r>   -9.4102    1.0000 </r>
       <r>   -9.3992    1.0000 </r>
       <r>   -9.3990    1.0000 </r>
       <r>   -9.3367    1.0000 </r>
       <r>   -9.3363    1.0000 </r>
       <r>   -9.0556    1.0000 </r>
       <r>   -9.0548    1.0000 </r>
       <r>   -8.9975    1.0000 </r>
       <r>   -8.9971    1.0000 </r>
       <r>   -8.9953    1.0000 </r>
       <r>   -8.9949    1.0000 </r>
       <r>   -8.9678    1.0000 </r>
       <r>   -8.9636    1.0000 </r>
       <r>   -8.9618    1.0000 </r>
       <r>   -8.9584    1.0000 </r>
       <r>   -8.9551    1.0000 </r>
       <r>   -8.9539    1.0000 </r>
       <r>   -8.9518    1.0000 </r>
       <r>   -8.9508    1.0000 </r>
       <r>   -8.9348    1.0000 </r>
       <r>   -8.9348    1.0000 </r>
       <r>   -8.9346    1.0000 </r>
       <r>   -8.9346    1.0000 </r>
       <r>   -8.8995    1.0000 </r>
       <r>   -8.8987    1.0000 </r>
       <r>   -6.3578    1.0000 </r>
       <r>   -5.9709    1.0000 </r>
       <r>   -5.4540    1.0000 </r>
       <r>   -5.3343    1.0000 </r>
       <r>   -5.2645    1.0000 </r>
       <r>   -5.2556    1.0000 </r>
       <r>   -5.0389    1.0000 </r>
       <r>   -5.0166    1.0000 </r>
       <r>   -0.6393    1.0000 </r>
       <r>   -0.4976    1.0000 </r>
       <r>   -0.3315    1.0000 </r>
       <r>   -0.1135    1.0000 </r>
       <r>   -0.1055    1.0000 </r>
       <r>    0.9513    1.0000 </r>
       <r>    1.3691    1.0000 </r>
       <r>    1.4954    1.0000 </r>
       <r>    1.7990    1.0000 </r>
       <r>    1.9740    1.0000 </r>
       <r>    2.0252    1.0000 </r>
       <r>    2.0724    1.0000 </r>
       <r>    2.3237    1.0000 </r>
       <r>    2.4395    1.0000 </r>
       <r>    2.7625    1.0000 </r>
       <r>    2.7983    1.0000 </r>
       <r>    3.1871    1.0000 </r>
       <r>    3.2469    1.0000 </r>
       <r>    3.5743    1.0000 </r>
       <r>    3.6311    1.0000 </r>
       <r>    3.7740    1.0000 </r>
       <r>    3.8729    1.0000 </r>
       <r>    3.9322    1.0000 </r>
       <r>    3.9555    1.0000 </r>
       <r>    3.9912    1.0000 </r>
       <r>    4.4295    1.0000 </r>
       <r>    4.6085    1.0000 </r>
       <r>    4.9752    1.0000 </r>
       <r>    6.0183    0.0000 </r>
       <r>    6.0747    0.0000 </r>
       <r>    6.5837    0.0000 </r>
       <r>    6.9466    0.0000 </r>
       <r>    7.1359    0.0000 </r>
       <r>    7.3560    0.0000 </r>
       <r>    7.7486    0.0000 </r>
       <r>    7.7501    0.0000 </r>
       <r>    7.9984    0.0000 </r>
       <r>    8.1175    0.0000 </r>
       <r>    8.2640    0.0000 </r>
       <r>    8.2708    0.0000 </r>
       <r>    8.8266    0.0000 </r>
       <r>    8.8490    0.0000 </r>
       <r>    8.9450    0.0000 </r>
       <r>    9.0880    0.0000 </r>
       <r>    9.3107    0.0000 </r>
       <r>    9.3120    0.0000 </r>
       <r>    9.3245    0.0000 </r>
[...]
       <r>     8.7772     5.7428    90.1874 </r>
       <r>     8.8620     5.6567    90.6673 </r>
       <r>     8.9468     8.4545    91.3845 </r>
       <r>     9.0317     7.1165    91.9882 </r>
       <r>     9.1165     6.9816    92.5804 </r>
       <r>     9.2013     6.3534    93.1194 </r>
       <r>     9.2861     5.9920    93.6277 </r>
       <r>     9.3710     6.7474    94.2001 </r>
       <r>     9.4558     7.4201    94.8295 </r>
       <r>     9.5406     7.3630    95.4541 </r>
       <r>     9.6255     9.5880    96.2675 </r>
       <r>     9.7103     9.1326    97.0422 </r>
       <r>     9.7951     7.9680    97.7181 </r>
       <r>     9.8800     8.8810    98.4715 </r>
       <r>     9.9648     6.6122    99.0324 </r>
       <r>    10.0496     8.0887    99.7186 </r>
       <r>    10.1344     5.6377   100.1968 </r>
       <r>    10.2193     4.0378   100.5394 </r>
       <r>    10.3041     3.7646   100.8587 </r>
       <r>    10.3889     4.5054   101.2409 </r>
       <r>    10.4738     4.5770   101.6292 </r>
       <r>    10.5586     3.9221   101.9619 </r>
       <r>    10.6434     4.2892   102.3257 </r>
       <r>    10.7283     3.9666   102.6622 </r>
       <r>    10.8131     3.7910   102.9838 </r>
       <r>    10.8979     3.1642   103.2522 </r>
       <r>    10.9828     3.2613   103.5289 </r>
       <r>    11.0676     2.2870   103.7229 </r>
       <r>    11.1524     2.2278   103.9119 </r>
       <r>    11.2372     1.9121   104.0741 </r>
       <r>    11.3221     2.2414   104.2642 </r>
       <r>    11.4069     2.3991   104.4677 </r>
       <r>    11.4917     1.9999   104.6374 </r>
       <r>    11.5766     2.3271   104.8348 </r>
       <r>    11.6614     3.7722   105.1548 </r>
       <r>    11.7462     3.3517   105.4391 </r>
       <r>    11.8311     2.0672   105.6145 </r>
       <r>    11.9159     2.7573   105.8484 </r>
       <r>    12.0007     5.8740   106.3467 </r>
       <r>    12.0855     8.1341   107.0367 </r>
       <r>    12.1704     7.1154   107.6403 </r>
       <r>    12.2552     5.3329   108.0927 </r>
       <r>    12.3400     4.2674   108.4547 </r>
       <r>    12.4249     3.3776   108.7412 </r>
       <r>    12.5097     4.2011   109.0976 </r>
       <r>    12.5945     5.2311   109.5414 </r>
       <r>    12.6794     4.4351   109.9176 </r>
       <r>    12.7642     3.9806   110.2553 </r>
       <r>    12.8490     4.2867   110.6189 </r>
       <r>    12.9339     6.4013   111.1619 </r>
       <r>    13.0187     4.3325   111.5295 </r>
       <r>    13.1035     1.9735   111.6969 </r>
       <r>    13.1883     0.6654   111.7533 </r>
       <r>    13.2732     0.6400   111.8076 </r>
       <r>    13.3580     0.3770   111.8396 </r>
       <r>    13.4428     0.4778   111.8801 </r>
       <r>    13.5277     0.8000   111.9480 </r>
       <r>    13.6125     0.6008   111.9990 </r>
       <r>    13.6973     0.0123   112.0000 </r>
       <r>    13.7822     0.0000   112.0000 </r>
       <r>    13.8670     0.0000   112.0000 </r>
       <r>    13.9518     0.0000   112.0000 </r>
       <r>    14.0366     0.0000   112.0000 </r>
       <r>    14.1215     0.0000   112.0000 </r>
       <r>    14.2063     0.0000   112.0000 </r>
       <r>    14.2911     0.0000   112.0000 </r>
       <r>    14.3760     0.0000   112.0000 </r>
       <r>    14.4608     0.0000   112.0000 </r>
       <r>    14.5456     0.0000   112.0000 </r>
       <r>    14.6305     0.0000   112.0000 </r>
       <r>    14.7153     0.0000   112.0000 </r>
      </set>
      <set comment="spin 2">
       <r>   -10.7338     0.0000     0.0000 </r>
       <r>   -10.6490     0.0000     0.0000 </r>
       <r>   -10.5642     0.0000     0.0000 </r>
       <r>   -10.4793     0.0000     0.0000 </r>
       <r>   -10.3945     0.0000     0.0000 </r>
       <r>   -10.3097     0.0000     0.0000 </r>
       <r>   -10.2248     0.0000     0.0000 </r>
       <r>   -10.1400     0.0000     0.0000 </r>
       <r>   -10.0552     0.0000     0.0000 </r>
       <r>    -9.9704     0.0000     0.0000 </r>
       <r>    -9.8855     0.0000     0.0000 </r>
       <r>    -9.8007     0.0000     0.0000 </r>
       <r>    -9.7159     0.0007     0.0001 </r>
       <r>    -9.6310     1.5048     0.1277 </r>
       <r>    -9.5462    34.6389     3.0661 </r>
       <r>    -9.4614    76.0170     9.5147 </r>
       <r>    -9.3765    98.7034    17.8877 </r>
       <r>    -9.2917    23.7496    19.9024 </r>
       <r>    -9.2069     1.1489    19.9999 </r>
       <r>    -9.1221     0.3171    20.0268 </r>
       <r>    -9.0372    14.3221    21.2418 </r>
       <r>    -8.9524   127.0961    32.0234 </r>
       <r>    -8.8676    90.5904    39.7082 </r>
       <r>    -8.7827     3.4346    39.9995 </r>
       <r>    -8.6979     0.0053    40.0000 </r>
       <r>    -8.6131     0.0000    40.0000 </r>
       <r>    -8.5282     0.0000    40.0000 </r>
       <r>    -8.4434     0.0000    40.0000 </r>
       <r>    -8.3586     0.0000    40.0000 </r>
       <r>    -8.2737     0.0000    40.0000 </r>
       <r>    -8.1889     0.0000    40.0000 </r>
       <r>    -8.1041     0.0000    40.0000 </r>
       <r>    -8.0193     0.0000    40.0000 </r>
       <r>    -7.9344     0.0000    40.0000 </r>
       <r>    -7.8496     0.0000    40.0000 </r>
       <r>    -7.7648     0.0000    40.0000 </r>
       <r>    -7.6799     0.0000    40.0000 </r>
       <r>    -7.5951     0.0000    40.0000 </r>
       <r>    -7.5103     0.0000    40.0000 </r>
       <r>    -7.4254     0.0000    40.0000 </r>
       <r>    -7.3406     0.0000    40.0000 </r>
       <r>    -7.2558     0.0000    40.0000 </r>
       <r>    -7.1710     0.0000    40.0000 </r>
       <r>    -7.0861     0.0000    40.0000 </r>
       <r>    -7.0013     0.0000    40.0000 </r>
       <r>    -6.9165     0.0000    40.0000 </r>
       <r>    -6.8316     0.0000    40.0000 </r>
       <r>    -6.7468     0.0000    40.0000 </r>
       <r>    -6.6620     0.0000    40.0000 </r>
       <r>    -6.5771     0.0002    40.0000 </r>
       <r>    -6.4923     0.1396    40.0119 </r>
       <r>    -6.4075     1.1646    40.1107 </r>
       <r>    -6.3226     0.9151    40.1883 </r>
       <r>    -6.2378     0.7664    40.2533 </r>
       <r>    -6.1530     2.7110    40.4833 </r>
       <r>    -6.0682     3.4724    40.7778 </r>
       <r>    -5.9833     2.5051    40.9903 </r>
       <r>    -5.8985     3.1732    41.2595 </r>
       <r>    -5.8137     2.6681    41.4859 </r>
       <r>    -5.7288     6.3352    42.0233 </r>
       <r>    -5.6440     4.9661    42.4446 </r>
       <r>    -5.5592     3.2087    42.7167 </r>
       <r>    -5.4743     7.2425    43.3311 </r>
       <r>    -5.3895     6.7832    43.9066 </r>
       <r>    -5.3047     6.4343    44.4524 </r>
       <r>    -5.2199    16.0975    45.8179 </r>
       <r>    -5.1350    12.7588    46.9003 </r>
       <r>    -5.0502     4.8796    47.3142 </r>
       <r>    -4.9654     5.7407    47.8012 </r>
       <r>    -4.8805     2.3139    47.9975 </r>
       <r>    -4.7957     0.0297    48.0000 </r>
       <r>    -4.7109     0.0000    48.0000 </r>
       <r>    -4.6260     0.0000    48.0000 </r>
       <r>    -4.5412     0.0000    48.0000 </r>
       <r>    -4.4564     0.0000    48.0000 </r>
       <r>    -4.3716     0.0000    48.0000 </r>
       <r>    -4.2867     0.0000    48.0000 </r>
       <r>    -4.2019     0.0000    48.0000 </r>
       <r>    -4.1171     0.0000    48.0000 </r>
       <r>    -4.0322     0.0000    48.0000 </r>
       <r>    -3.9474     0.0000    48.0000 </r>
       <r>    -3.8626     0.0000    48.0000 </r>
       <r>    -3.7777     0.0000    48.0000 </r>
       <r>    -3.6929     0.0000    48.0000 </r>
       <r>    -3.6081     0.0000    48.0000 </r>
       <r>    -3.5232     0.0000    48.0000 </r>
       <r>    -3.4384     0.0000    48.0000 </r>
       <r>    -3.3536     0.0000    48.0000 </r>
       <r>    -3.2688     0.0000    48.0000 </r>
       <r>    -3.1839     0.0000    48.0000 </r>
       <r>    -3.0991     0.0000    48.0000 </r>
       <r>    -3.0143     0.0000    48.0000 </r>
       <r>    -2.9294     0.0000    48.0000 </r>
       <r>    -2.8446     0.0000    48.0000 </r>
       <r>    -2.7598     0.0000    48.0000 </r>
       <r>    -2.6749     0.0000    48.0000 </r>
       <r>    -2.5901     0.0000    48.0000 </r>
       <r>    -2.5053     0.0000    48.0000 </r>
       <r>    -2.4205     0.0000    48.0000 </r>
       <r>    -2.3356     0.0000    48.0000 </r>
       <r>    -2.2508     0.0000    48.0000 </r>
       <r>    -2.1660     0.0000    48.0000 </r>
       <r>    -2.0811     0.0000    48.0000 </r>
       <r>    -1.9963     0.0000    48.0000 </r>
       <r>    -1.9115     0.0000    48.0000 </r>
       <r>    -1.8266     0.0000    48.0000 </r>
       <r>    -1.7418     0.0000    48.0000 </r>
       <r>    -1.6570     0.0000    48.0000 </r>
       <r>    -1.5721     0.0000    48.0000 </r>
       <r>    -1.4873     0.0000    48.0000 </r>
       <r>    -1.4025     0.0000    48.0000 </r>
       <r>    -1.3177     0.0000    48.0000 </r>
       <r>    -1.2328     0.0000    48.0000 </r>
       <r>    -1.1480     0.0000    48.0000 </r>
       <r>    -1.0632     0.0000    48.0000 </r>
       <r>    -0.9783     0.0000    48.0000 </r>
       <r>    -0.8935     0.0004    48.0000 </r>
       <r>    -0.8087     0.1552    48.0132 </r>
       <r>    -0.7238     0.9335    48.0924 </r>
       <r>    -0.6390     1.0939    48.1852 </r>
       <r>    -0.5542     1.5848    48.3196 </r>
       <r>    -0.4694     3.3228    48.6015 </r>
       <r>    -0.3845     5.7328    49.0878 </r>
       <r>    -0.2997     7.0522    49.6861 </r>
       <r>    -0.2149     8.6320    50.4183 </r>
       <r>    -0.1300     7.0708    51.0181 </r>
       <r>    -0.0452     5.4220    51.4781 </r>
       <r>     0.0396     3.9633    51.8143 </r>
       <r>     0.1245     5.7861    52.3051 </r>
       <r>     0.2093     4.0666    52.6501 </r>
       <r>     0.2941     3.4475    52.9426 </r>
       <r>     0.3790     6.4755    53.4919 </r>
       <r>     0.4638     6.5324    54.0460 </r>
       <r>     0.5486     2.4724    54.2558 </r>
       <r>     0.6334     1.5505    54.3873 </r>
       <r>     0.7183     1.6354    54.5260 </r>
       <r>     0.8031     2.0769    54.7022 </r>
       <r>     0.8879     2.0604    54.8770 </r>
       <r>     0.9728     1.6870    55.0201 </r>
       <r>     1.0576     1.0492    55.1091 </r>
       <r>     1.1424     0.8806    55.1838 </r>
       <r>     1.2273     1.0860    55.2759 </r>
       <r>     1.3121     1.5718    55.4093 </r>
       <r>     1.3969     1.6476    55.5490 </r>
       <r>     1.4817     2.5645    55.7666 </r>
       <r>     1.5666     2.8981    56.0124 </r>
       <r>     1.6514     4.5958    56.4023 </r>
       <r>     1.7362     3.9513    56.7375 </r>
       <r>     1.8211     3.7033    57.0516 </r>
       <r>     1.9059     5.0632    57.4811 </r>
       <r>     1.9907     3.1537    57.7487 </r>
       <r>     2.0756     3.8871    58.0784 </r>
       <r>     2.1604     4.1758    58.4327 </r>
       <r>     2.2452     4.9023    58.8485 </r>
       <r>     2.3301     5.3419    59.3017 </r>
       <r>     2.4149     4.6686    59.6977 </r>
       <r>     2.4997     3.9925    60.0364 </r>
       <r>     2.5845     4.9809    60.4589 </r>
       <r>     2.6694     3.7765    60.7793 </r>
       <r>     2.7542     4.7191    61.1796 </r>
       <r>     2.8390     6.6744    61.7458 </r>
       <r>     2.9239     6.5932    62.3051 </r>
       <r>     3.0087     7.0495    62.9031 </r>
       <r>     3.0935     6.5841    63.4617 </r>
       <r>     3.1784     5.3259    63.9135 </r>
       <r>     3.2632     4.6573    64.3085 </r>
       <r>     3.3480     6.5238    64.8620 </r>
       <r>     3.4328     7.6099    65.5075 </r>
       <r>     3.5177    11.8626    66.5138 </r>
       <r>     3.6025    13.0620    67.6219 </r>
       <r>     3.6873    10.0462    68.4741 </r>
       <r>     3.7722     7.7913    69.1350 </r>
       <r>     3.8570     7.7009    69.7883 </r>
       <r>     3.9418     9.6517    70.6071 </r>
       <r>     4.0267    11.2531    71.5617 </r>
       <r>     4.1115     5.5532    72.0328 </r>
       <r>     4.1963     3.8292    72.3576 </r>
       <r>     4.2812     6.1303    72.8776 </r>
       <r>     4.3660     6.6414    73.4410 </r>
       <r>     4.4508     8.5935    74.1700 </r>
       <r>     4.5356     6.3044    74.7048 </r>
       <r>     4.6205     4.2702    75.0670 </r>
       <r>     4.7053     3.9950    75.4059 </r>
       <r>     4.7901     1.8368    75.5618 </r>
       <r>     4.8750     1.3221    75.6739 </r>
       <r>     4.9598     1.0727    75.7649 </r>
       <r>     5.0446     0.2688    75.7877 </r>
       <r>     5.1295     0.2287    75.8071 </r>
       <r>     5.2143     0.2362    75.8271 </r>
       <r>     5.2991     0.2514    75.8485 </r>
       <r>     5.3839     0.2933    75.8733 </r>
       <r>     5.4688     0.6490    75.9284 </r>
       <r>     5.5536     1.4032    76.0474 </r>
       <r>     5.6384     1.3780    76.1643 </r>
       <r>     5.7233     0.7525    76.2282 </r>
       <r>     5.8081     1.1217    76.3233 </r>
       <r>     5.8929     2.4074    76.5276 </r>
       <r>     5.9778     1.3791    76.6445 </r>
       <r>     6.0626     1.0492    76.7335 </r>
       <r>     6.1474     1.5592    76.8658 </r>
       <r>     6.2323     2.1535    77.0485 </r>
       <r>     6.3171     6.7577    77.6217 </r>
       <r>     6.4019     7.1453    78.2279 </r>
       <r>     6.4867     3.0481    78.4865 </r>
       <r>     6.5716     3.1940    78.7574 </r>
       <r>     6.6564     4.3997    79.1306 </r>
       <r>     6.7412     3.8903    79.4607 </r>
       <r>     6.8261     3.8682    79.7888 </r>
       <r>     6.9109     2.6445    80.0131 </r>
       <r>     6.9957     2.9147    80.2604 </r>
       <r>     7.0806     4.6245    80.6527 </r>
       <r>     7.1654     5.4303    81.1133 </r>
       <r>     7.2502     3.7249    81.4293 </r>
       <r>     7.3350     3.4723    81.7239 </r>
       <r>     7.4199     3.6389    82.0326 </r>
       <r>     7.5047     4.8340    82.4426 </r>
       <r>     7.5895     5.1189    82.8769 </r>
       <r>     7.6744     3.8781    83.2059 </r>
       <r>     7.7592     3.0922    83.4682 </r>
       <r>     7.8440     4.9103    83.8847 </r>
       <r>     7.9289     5.7187    84.3698 </r>
       <r>     8.0137     6.7537    84.9427 </r>
       <r>     8.0985     7.1684    85.5508 </r>
       <r>     8.1834     9.6469    86.3692 </r>
       <r>     8.2682     7.1707    86.9775 </r>
       <r>     8.3530     6.5880    87.5363 </r>
       <r>     8.4378     6.5271    88.0900 </r>
       <r>     8.5227     5.8131    88.5832 </r>
       <r>     8.6075     6.0445    89.0959 </r>
       <r>     8.6923     7.0949    89.6978 </r>
       <r>     8.7772     5.7521    90.1857 </r>
       <r>     8.8620     5.6456    90.6647 </r>
       <r>     8.9468     8.4499    91.3815 </r>
       <r>     9.0317     7.1258    91.9860 </r>
       <r>     9.1165     6.9760    92.5777 </r>
       <r>     9.2013     6.3643    93.1176 </r>
       <r>     9.2861     5.9903    93.6258 </r>
       <r>     9.3710     6.7359    94.1972 </r>
       <r>     9.4558     7.4269    94.8272 </r>
       <r>     9.5406     7.3575    95.4513 </r>
       <r>     9.6255     9.5849    96.2644 </r>
       <r>     9.7103     9.1399    97.0398 </r>
       <r>     9.7951     7.9644    97.7154 </r>
       <r>     9.8800     8.8873    98.4693 </r>
       <r>     9.9648     6.6138    99.0304 </r>
       <r>    10.0496     8.0869    99.7164 </r>
       <r>    10.1344     5.6501   100.1957 </r>
       <r>    10.2193     4.0383   100.5382 </r>
       <r>    10.3041     3.7657   100.8577 </r>
       <r>    10.3889     4.5008   101.2395 </r>
       <r>    10.4738     4.5725   101.6274 </r>
       <r>    10.5586     3.9259   101.9604 </r>
       <r>    10.6434     4.2906   102.3244 </r>
       <r>    10.7283     3.9639   102.6606 </r>
       <r>    10.8131     3.7950   102.9826 </r>
       <r>    10.8979     3.1597   103.2506 </r>
       <r>    10.9828     3.2664   103.5277 </r>
       <r>    11.0676     2.2830   103.7214 </r>
       <r>    11.1524     2.2347   103.9109 </r>
       <r>    11.2372     1.9089   104.0729 </r>
       <r>    11.3221     2.2432   104.2632 </r>
       <r>    11.4069     2.3949   104.4663 </r>
       <r>    11.4917     2.0048   104.6364 </r>
       <r>    11.5766     2.3151   104.8328 </r>
       <r>    11.6614     3.7677   105.1524 </r>
       <r>    11.7462     3.3614   105.4375 </r>
       <r>    11.8311     2.0692   105.6131 </r>
       <r>    11.9159     2.7474   105.8461 </r>
       <r>    12.0007     5.8567   106.3430 </r>
       <r>    12.0855     8.1217   107.0319 </r>
       <r>    12.1704     7.1142   107.6354 </r>
       <r>    12.2552     5.3737   108.0913 </r>
       <r>    12.3400     4.2493   108.4518 </r>
       <r>    12.4249     3.4275   108.7425 </r>
       <r>    12.5097     4.2100   109.0997 </r>
       <r>    12.5945     5.1550   109.5370 </r>
       <r>    12.6794     4.5376   109.9219 </r>
       <r>    12.7642     3.9510   110.2570 </r>
       <r>    12.8490     4.2188   110.6149 </r>
       <r>    12.9339     6.3087   111.1501 </r>
       <r>    13.0187     4.4463   111.5273 </r>
       <r>    13.1035     1.9565   111.6932 </r>
       <r>    13.1883     0.6998   111.7526 </r>
       <r>    13.2732     0.5933   111.8029 </r>
       <r>    13.3580     0.4340   111.8398 </r>
       <r>    13.4428     0.4150   111.8750 </r>
       <r>    13.5277     0.7692   111.9402 </r>
       <r>    13.6125     0.6862   111.9984 </r>
       <r>    13.6973     0.0185   112.0000 </r>
       <r>    13.7822     0.0000   112.0000 </r>
       <r>    13.8670     0.0000   112.0000 </r>
       <r>    13.9518     0.0000   112.0000 </r>
       <r>    14.0366     0.0000   112.0000 </r>
       <r>    14.1215     0.0000   112.0000 </r>
       <r>    14.2063     0.0000   112.0000 </r>
       <r>    14.2911     0.0000   112.0000 </r>
       <r>    14.3760     0.0000   112.0000 </r>
       <r>    14.4608     0.0000   112.0000 </r>
       <r>    14.5456     0.0000   112.0000 </r>
       <r>    14.6305     0.0000   112.0000 </r>
       <r>    14.7153     0.0000   112.0000 </r>
      </set>
     </set>
    </array>
   </total>
  </dos>
 </calculation>
 <structure name="finalpos" >
  <crystal>
   <varray name="basis" >
    <v>       8.62243652       0.00000000       0.00000000 </v>
    <v>       0.00000000       8.62243652       0.00000000 </v>
    <v>       0.00000000       0.00000000       7.22415221 </v>
   </varray>
   <i name="volume">    537.08979340 </i>
   <varray name="rec_basis" >
    <v>       0.11597650       0.00000000       0.00000000 </v>
    <v>       0.00000000       0.11597650       0.00000000 </v>
    <v>       0.00000000       0.00000000       0.13842455 </v>
   </varray>
  </crystal>
  <varray name="positions" >
   <v>       0.00000000       0.00000000       0.25000000 </v>
   <v>       0.00000000       0.00000000       0.75000000 </v>
   <v>       0.50000000       0.50000000       0.75000000 </v>
   <v>       0.50000000       0.50000000       0.25000000 </v>
   <v>       0.00000000       0.50000000       0.25000000 </v>
   <v>       0.00000000       0.50000000       0.75000000 </v>
   <v>       0.50000000       0.00000000       0.25000000 </v>
   <v>       0.50000000       0.00000000       0.75000000 </v>
   <v>       0.18200020       0.68200018       0.00000000 </v>
   <v>       0.81799982       0.31799982       0.00000000 </v>
   <v>       0.31799982       0.18200020       0.00000000 </v>
   <v>       0.68200018       0.81799982       0.00000000 </v>
   <v>       0.81799982       0.68200018       0.50000000 </v>
   <v>       0.18200020       0.31799982       0.50000000 </v>
   <v>       0.68200018       0.18200020       0.50000000 </v>
   <v>       0.31799982       0.81799982       0.50000000 </v>
  </varray>
 </structure>
</modeling>
